 Gaussian 16, Revision B.01,

 ---------------------------------------------------------------------
 #p b3lyp 6-31g* # scrf=(iefpcm,solvent=cyclohexane,read) nosym 6d 10f
 ---------------------------------------------------------------------

 -----
 title
 -----
 Symbolic Z-matrix:
 Charge =  0 Multiplicity = 1

 SCF Done:  E(RB3LYP) =  -466.787911596     A.U. after   13 cycles
 Normal termination of Gaussian 16 at Tue Sep 15 22:43:50 2020.

 ---------------------------------------------------------------------
 #p b3lyp 6-31g* # scrf=(iefpcm,solvent=cyclohexane,read) nosym 6d 10f
 ---------------------------------------------------------------------

 -----
 title
 -----
 Symbolic Z-matrix:
 Charge =  0 Multiplicity = 1

 SCF Done:  E(RB3LYP) =  -466.784765568     A.U. after   12 cycles
 Normal termination of Gaussian 16 at Tue Sep 15 22:44:26 2020.

 ---------------------------------------------------------------------
 #p b3lyp 6-31g* # scrf=(iefpcm,solvent=cyclohexane,read) nosym 6d 10f
 ---------------------------------------------------------------------

 -----
 title
 -----
 Symbolic Z-matrix:
 Charge =  0 Multiplicity = 1

 SCF Done:  E(RB3LYP) =  -466.780123316     A.U. after   12 cycles
 Normal termination of Gaussian 16 at Tue Sep 15 22:45:05 2020.

 ---------------------------------------------------------------------
 #p b3lyp 6-31g* # scrf=(iefpcm,solvent=cyclohexane,read) nosym 6d 10f
 ---------------------------------------------------------------------

 -----
 title
 -----
 Symbolic Z-matrix:
 Charge =  0 Multiplicity = 1

 SCF Done:  E(RB3LYP) =  -466.775471232     A.U. after   13 cycles
 Normal termination of Gaussian 16 at Tue Sep 15 22:45:47 2020.

 ---------------------------------------------------------------------
 #p b3lyp 6-31g* # scrf=(iefpcm,solvent=cyclohexane,read) nosym 6d 10f
 ---------------------------------------------------------------------

 -----
 title
 -----
 Symbolic Z-matrix:
 Charge =  0 Multiplicity = 1

 SCF Done:  E(RB3LYP) =  -466.768709692     A.U. after   13 cycles
 Normal termination of Gaussian 16 at Tue Sep 15 22:46:22 2020.

 ---------------------------------------------------------------------
 #p b3lyp 6-31g* # scrf=(iefpcm,solvent=cyclohexane,read) nosym 6d 10f
 ---------------------------------------------------------------------

 -----
 title
 -----
 Symbolic Z-matrix:
 Charge =  0 Multiplicity = 1

 SCF Done:  E(RB3LYP) =  -466.762990051     A.U. after   13 cycles
 Normal termination of Gaussian 16 at Tue Sep 15 22:47:09 2020.
 Gaussian 16:  ES64L-G16RevB.01 20-Dec-2017

                          Input orientation:
 ---------------------------------------------------------------------
 Center     Atomic      Atomic             Coordinates (Angstroms)
 Number     Number       Type             X           Y           Z
 ---------------------------------------------------------------------
      1          6           0        2.468892    0.284095   -0.708957
      2          6           0        1.667254    1.330389    0.031252
      3          6           0        1.087601    1.075991    1.256922
      4          6           0        0.689250   -0.234741    1.575517
      5          6           0        0.886557   -1.229380    0.609039
      6          6           0        2.185072   -1.148363   -0.185946
      7          1           0        0.754870    1.903944    1.878564
      8          1           0        1.804474    2.361213   -0.290944
      9          1           0        2.289282    0.358101   -1.789365
     10          1           0        3.538694    0.506111   -0.581025
     11          1           0        0.057564   -0.414132    2.441200
     12          1           0        0.559304   -2.241378    0.845590
     13          1           0        2.995597   -1.451049    0.490252
     14          1           0        2.187529   -1.871427   -1.009641
     15          6           0       -0.429793    0.553269   -1.228382
     16          6           0       -0.468367   -0.818307   -0.924402
     17          1           0        0.178899    0.920914   -2.045953
     18          1           0        0.039438   -1.478372   -1.626777
     19          6           0       -1.793403   -1.381477   -0.412965
     20          1           0       -2.433705   -1.525729   -1.296815
     21          1           0       -1.657728   -2.376149    0.027843
     22          6           0       -1.419929    1.435138   -0.644601
     23          1           0       -1.363311    2.495516   -0.884397
     24          6           0       -2.359563    1.000047    0.221263
     25          1           0       -3.040678    1.712474    0.683525
     26          6           0       -2.532766   -0.458144    0.574312
     27          1           0       -3.601447   -0.715834    0.575953
     28          1           0       -2.193607   -0.635306    1.603677
 ---------------------------------------------------------------------

 SCF Done:  E(RB3LYP) =  -466.755654902     A.U. after   13 cycles
 Normal termination of Gaussian 16 at Tue Sep 15 22:47:47 2020.
