 Gaussian 16, Revision B.01,

 ---------------------------------------------------------------------
 #p b3lyp 6-31g* # scrf=(iefpcm,solvent=cyclohexane,read) nosym 6d 10f
 ---------------------------------------------------------------------

 -----
 title
 -----
 Symbolic Z-matrix:
 Charge =  0 Multiplicity = 1

 SCF Done:  E(RB3LYP) =  -466.827625890     A.U. after   11 cycles
 Normal termination of Gaussian 16 at Tue Sep 15 22:33:32 2020.

 ---------------------------------------------------------------------
 #p b3lyp 6-31g* # scrf=(iefpcm,solvent=cyclohexane,read) nosym 6d 10f
 ---------------------------------------------------------------------

 -----
 title
 -----
 Symbolic Z-matrix:
 Charge =  0 Multiplicity = 1

 SCF Done:  E(RB3LYP) =  -466.824467233     A.U. after   11 cycles
 Normal termination of Gaussian 16 at Tue Sep 15 22:34:46 2020.

 ---------------------------------------------------------------------
 #p b3lyp 6-31g* # scrf=(iefpcm,solvent=cyclohexane,read) nosym 6d 10f
 ---------------------------------------------------------------------

 -----
 title
 -----
 Symbolic Z-matrix:
 Charge =  0 Multiplicity = 1

 SCF Done:  E(RB3LYP) =  -466.819866333     A.U. after   11 cycles
 Normal termination of Gaussian 16 at Tue Sep 15 22:36:54 2020.

 ---------------------------------------------------------------------
 #p b3lyp 6-31g* # scrf=(iefpcm,solvent=cyclohexane,read) nosym 6d 10f
 ---------------------------------------------------------------------

 -----
 title
 -----
 Symbolic Z-matrix:
 Charge =  0 Multiplicity = 1

 SCF Done:  E(RB3LYP) =  -466.813485058     A.U. after   11 cycles
 Normal termination of Gaussian 16 at Tue Sep 15 22:38:32 2020.

 ---------------------------------------------------------------------
 #p b3lyp 6-31g* # scrf=(iefpcm,solvent=cyclohexane,read) nosym 6d 10f
 ---------------------------------------------------------------------

 -----
 title
 -----
 Symbolic Z-matrix:
 Charge =  0 Multiplicity = 1

 SCF Done:  E(RB3LYP) =  -466.805423420     A.U. after   11 cycles
 Normal termination of Gaussian 16 at Tue Sep 15 22:40:33 2020.

 ---------------------------------------------------------------------
 #p b3lyp 6-31g* # scrf=(iefpcm,solvent=cyclohexane,read) nosym 6d 10f
 ---------------------------------------------------------------------

 -----
 title
 -----
 Symbolic Z-matrix:
 Charge =  0 Multiplicity = 1

 SCF Done:  E(RB3LYP) =  -466.800656515     A.U. after   11 cycles
 Normal termination of Gaussian 16 at Tue Sep 15 22:42:30 2020.
 Gaussian 16:  ES64L-G16RevB.01 20-Dec-2017

                          Input orientation:
 ---------------------------------------------------------------------
 Center     Atomic      Atomic             Coordinates (Angstroms)
 Number     Number       Type             X           Y           Z
 ---------------------------------------------------------------------
      1          6           0       -0.941240    0.709078   -1.447500
      2          6           0       -1.130144   -0.586439   -1.688764
      3          1           0       -0.187383    1.270013   -1.985885
      4          1           0       -0.546479   -1.097826   -2.445614
      5          6           0       -2.213721   -1.349362   -0.978023
      6          1           0       -3.123677   -1.301662   -1.591424
      7          1           0       -1.953148   -2.406359   -0.901332
      8          6           0       -1.753199    1.406457   -0.450967
      9          1           0       -1.718481    2.488604   -0.416537
     10          6           0       -2.498772    0.723169    0.416199
     11          1           0       -3.072350    1.240660    1.176490
     12          6           0       -2.498247   -0.780221    0.412174
     13          1           0       -3.447477   -1.166814    0.787115
     14          1           0       -1.724665   -1.122064    1.111268
     15          6           0        2.576005   -0.058432   -0.624796
     16          6           0        2.259201    1.245519    0.052337
     17          6           0        1.443331    1.283534    1.104783
     18          6           0        0.864455    0.053379    1.642538
     19          6           0        1.343111   -1.135379    1.281075
     20          6           0        2.518953   -1.235476    0.348814
     21          1           0        1.175601    2.227900    1.562761
     22          1           0        2.658280    2.161148   -0.368562
     23          1           0        1.841411   -0.211714   -1.425701
     24          1           0        3.555179   -0.016744   -1.104840
     25          1           0        0.043038    0.131938    2.344097
     26          1           0        0.931882   -2.046820    1.699547
     27          1           0        3.435020   -1.259975    0.954472
     28          1           0        2.493558   -2.175989   -0.204125
 ---------------------------------------------------------------------

 SCF Done:  E(RB3LYP) =  -466.793451549     A.U. after   11 cycles
 Normal termination of Gaussian 16 at Tue Sep 15 22:43:01 2020.
