 Gaussian 16, Revision B.01,

 ----------------------------------------------------------------------
 #p uwb97xd guess=mix def2tzvp # scrf=(iefpcm,solvent=Cyclohexane,read)
  nosym 6d 10f
 ----------------------------------------------------------------------

 -----------------------
 endo-2 xp-pcm for eta=3
 -----------------------
 Symbolic Z-matrix:
 Charge =  0 Multiplicity = 1

 SCF Done:  E(UwB97XD) =  -466.850732491     A.U. after   17 cycles
 Normal termination of Gaussian 16 at Mon Aug  3 21:03:37 2020.

 ----------------------------------------------------------------------
 #p uwb97xd guess=mix def2tzvp # scrf=(iefpcm,solvent=Cyclohexane,read)
  nosym 6d 10f
 ----------------------------------------------------------------------

 -----------------------
 endo-2 xp-pcm for eta=3
 -----------------------
 Symbolic Z-matrix:
 Charge =  0 Multiplicity = 1

 SCF Done:  E(UwB97XD) =  -466.847726110     A.U. after   17 cycles
 Normal termination of Gaussian 16 at Mon Aug  3 21:08:55 2020.

 ----------------------------------------------------------------------
 #p uwb97xd guess=mix def2tzvp # scrf=(iefpcm,solvent=Cyclohexane,read)
  nosym 6d 10f
 ----------------------------------------------------------------------

 -----------------------
 endo-2 xp-pcm for eta=3
 -----------------------
 Symbolic Z-matrix:
 Charge =  0 Multiplicity = 1

 SCF Done:  E(UwB97XD) =  -466.842758723     A.U. after   17 cycles
 Normal termination of Gaussian 16 at Mon Aug  3 21:14:11 2020.

 ----------------------------------------------------------------------
 #p uwb97xd guess=mix def2tzvp # scrf=(iefpcm,solvent=Cyclohexane,read)
  nosym 6d 10f
 ----------------------------------------------------------------------

 -----------------------
 endo-2 xp-pcm for eta=3
 -----------------------
 Symbolic Z-matrix:
 Charge =  0 Multiplicity = 1

 SCF Done:  E(UwB97XD) =  -466.836338197     A.U. after   17 cycles
 Normal termination of Gaussian 16 at Mon Aug  3 21:19:28 2020.

 ----------------------------------------------------------------------
 #p uwb97xd guess=mix def2tzvp # scrf=(iefpcm,solvent=Cyclohexane,read)
  nosym 6d 10f
 ----------------------------------------------------------------------

 -----------------------
 endo-2 xp-pcm for eta=3
 -----------------------
 Symbolic Z-matrix:
 Charge =  0 Multiplicity = 1

 SCF Done:  E(UwB97XD) =  -466.826002512     A.U. after   17 cycles
 Normal termination of Gaussian 16 at Mon Aug  3 21:24:44 2020.

 ----------------------------------------------------------------------
 #p uwb97xd guess=mix def2tzvp # scrf=(iefpcm,solvent=Cyclohexane,read)
  nosym 6d 10f
 ----------------------------------------------------------------------

 -----------------------
 endo-2 xp-pcm for eta=3
 -----------------------
 Symbolic Z-matrix:
 Charge =  0 Multiplicity = 1

 SCF Done:  E(UwB97XD) =  -466.819014552     A.U. after   17 cycles
 Normal termination of Gaussian 16 at Mon Aug  3 21:30:04 2020.
 Gaussian 16:  ES64L-G16RevB.01 20-Dec-2017

                          Input orientation:
 ---------------------------------------------------------------------
 Center     Atomic      Atomic             Coordinates (Angstroms)
 Number     Number       Type             X           Y           Z
 ---------------------------------------------------------------------
      1          6           0       -3.117905   -0.439074    0.282722
      2          6           0       -0.818524   -0.273593   -1.364901
      3          1           0       -4.033330   -0.517117    0.857717
      4          1           0        0.103373   -0.201366   -1.929344
      5          6           0        1.228903    1.441011    0.876454
      6          6           0        0.818524    0.273593    1.364901
      7          1           0        0.643410    2.339945    1.029443
      8          1           0       -0.103373    0.201366    1.929344
      9          6           0        1.645400   -0.970035    1.206150
     10          1           0        2.259726   -1.083800    2.109018
     11          1           0        0.997461   -1.847095    1.165558
     12          6           0        2.485196    1.535682    0.130802
     13          1           0        2.886502    2.517404   -0.090679
     14          6           0        3.117905    0.439074   -0.282722
     15          1           0        4.033330    0.517117   -0.857717
     16          6           0        2.546291   -0.929423   -0.030764
     17          1           0        1.973763   -1.230286   -0.916701
     18          1           0        3.347800   -1.663372    0.070740
     19          6           0       -1.228903   -1.441011   -0.876454
     20          1           0       -0.643410   -2.339945   -1.029443
     21          6           0       -2.485196   -1.535682   -0.130802
     22          1           0       -2.886502   -2.517404    0.090679
     23          6           0       -1.645400    0.970035   -1.206150
     24          1           0       -0.997461    1.847095   -1.165558
     25          1           0       -2.259726    1.083800   -2.109018
     26          6           0       -2.546291    0.929423    0.030764
     27          1           0       -3.347800    1.663372   -0.070740
     28          1           0       -1.973763    1.230286    0.916701
 ---------------------------------------------------------------------

 SCF Done:  E(UwB97XD) =  -466.811324667     A.U. after   17 cycles

 Alpha  occ. eigenvalues --  -10.27249 -10.27248 -10.27135 -10.27132 -10.27093
 Alpha  occ. eigenvalues --  -10.27090 -10.27088 -10.27086 -10.26799 -10.26796
 Alpha  occ. eigenvalues --  -10.26570 -10.26566  -0.93114  -0.92731  -0.83130
 Alpha  occ. eigenvalues --   -0.83083  -0.82921  -0.82718  -0.70271  -0.70238
 Alpha  occ. eigenvalues --   -0.66948  -0.66934  -0.58728  -0.58593  -0.56444
 Alpha  occ. eigenvalues --   -0.55910  -0.52406  -0.51697  -0.49897  -0.49836
 Alpha  occ. eigenvalues --   -0.48932  -0.48506  -0.46231  -0.45948  -0.44114
 Alpha  occ. eigenvalues --   -0.43982  -0.40173  -0.40018  -0.38602  -0.38288
 Alpha  occ. eigenvalues --   -0.38226  -0.38121  -0.28785  -0.26881
 Alpha virt. eigenvalues --    0.05045   0.05741   0.13278   0.14489   0.16354
 Alpha virt. eigenvalues --    0.16750   0.17120   0.18067   0.18298   0.18950
 Alpha virt. eigenvalues --    0.19657   0.19693   0.20091   0.21219   0.22966

  Beta  occ. eigenvalues --  -10.27249 -10.27248 -10.27135 -10.27132 -10.27093
  Beta  occ. eigenvalues --  -10.27090 -10.27088 -10.27086 -10.26799 -10.26796
  Beta  occ. eigenvalues --  -10.26570 -10.26566  -0.93114  -0.92731  -0.83130
  Beta  occ. eigenvalues --   -0.83083  -0.82921  -0.82718  -0.70271  -0.70238
  Beta  occ. eigenvalues --   -0.66948  -0.66934  -0.58728  -0.58593  -0.56444
  Beta  occ. eigenvalues --   -0.55910  -0.52406  -0.51697  -0.49897  -0.49836
  Beta  occ. eigenvalues --   -0.48932  -0.48506  -0.46231  -0.45948  -0.44114
  Beta  occ. eigenvalues --   -0.43982  -0.40173  -0.40018  -0.38602  -0.38288
  Beta  occ. eigenvalues --   -0.38226  -0.38121  -0.28785  -0.26881
  Beta virt. eigenvalues --    0.05045   0.05741   0.13278   0.14489   0.16354
  Beta virt. eigenvalues --    0.16750   0.17120   0.18067   0.18298   0.18950
  Beta virt. eigenvalues --    0.19657   0.19693   0.20091   0.21219   0.22966

 Mulliken charges and spin densities:
               1          2
     1  C   -0.203864  -0.000001
     2  C   -0.199943   0.000000
     3  H    0.148640   0.000000
     4  H    0.168860   0.000000
     5  C   -0.189859  -0.000000
     6  C   -0.196594   0.000000
     7  H    0.165866   0.000000
     8  H    0.168995  -0.000000
     9  C   -0.207247  -0.000001
    10  H    0.131020   0.000000
    11  H    0.138432   0.000000
    12  C   -0.164274   0.000000
    13  H    0.152523  -0.000000
    14  C   -0.203413   0.000000
    15  H    0.148700  -0.000000
    16  C   -0.191880   0.000000
    17  H    0.114785  -0.000000
    18  H    0.132987  -0.000000
    19  C   -0.189321   0.000000
    20  H    0.167738  -0.000000
    21  C   -0.162119   0.000000
    22  H    0.151855   0.000000
    23  C   -0.206296   0.000001
    24  H    0.138501  -0.000000
    25  H    0.130927  -0.000000
    26  C   -0.191110  -0.000000
    27  H    0.132654   0.000000
    28  H    0.113437   0.000000
 Sum of Mulliken charges =  -0.00000  -0.00000

 Dipole moment (field-independent basis, Debye):
    X=              0.0002    Y=             -0.0000    Z=              0.0003  Tot=              0.0003
 Quadrupole moment (field-independent basis, Debye-Ang):
   XX=            -70.6053   YY=            -68.0525   ZZ=            -74.8620
   XY=             -3.2629   XZ=             -3.9884   YZ=             -1.6951

 Normal termination of Gaussian 16 at Mon Aug  3 21:35:22 2020.
