 Gaussian 16, Revision A.03,

 ----------------------------------------------------------------
 #p b3lyp/6-31g(d) # scrf=(iefpcm,solvent=Cyclohexane,read) nosym
 ----------------------------------------------------------------

 -----------------------------------------------
 Cycloexadiene, E(B3LYP/6-31G*) xp-pcm for eta=3
 -----------------------------------------------
 Symbolic Z-matrix:
 Charge =  0 Multiplicity = 1

 SCF Done:  E(RB3LYP) =  -233.411672986     A.U. after   10 cycles
 Normal termination of Gaussian 16 at Thu Jun  4 11:47:33 2020.

 ----------------------------------------------------------------
 #p b3lyp/6-31g(d) # scrf=(iefpcm,solvent=Cyclohexane,read) nosym
 ----------------------------------------------------------------

 -----------------------------------------------
 Cycloexadiene, E(B3LYP/6-31G*) xp-pcm for eta=3
 -----------------------------------------------
 Symbolic Z-matrix:
 Charge =  0 Multiplicity = 1

 SCF Done:  E(RB3LYP) =  -233.409587257     A.U. after   10 cycles
 Normal termination of Gaussian 16 at Thu Jun  4 11:47:52 2020.

 ----------------------------------------------------------------
 #p b3lyp/6-31g(d) # scrf=(iefpcm,solvent=Cyclohexane,read) nosym
 ----------------------------------------------------------------

 -----------------------------------------------
 Cycloexadiene, E(B3LYP/6-31G*) xp-pcm for eta=3
 -----------------------------------------------
 Symbolic Z-matrix:
 Charge =  0 Multiplicity = 1

 SCF Done:  E(RB3LYP) =  -233.406849034     A.U. after   10 cycles
 Normal termination of Gaussian 16 at Thu Jun  4 11:48:12 2020.

 ----------------------------------------------------------------
 #p b3lyp/6-31g(d) # scrf=(iefpcm,solvent=Cyclohexane,read) nosym
 ----------------------------------------------------------------

 -----------------------------------------------
 Cycloexadiene, E(B3LYP/6-31G*) xp-pcm for eta=3
 -----------------------------------------------
 Symbolic Z-matrix:
 Charge =  0 Multiplicity = 1

 SCF Done:  E(RB3LYP) =  -233.402553097     A.U. after   10 cycles
 Normal termination of Gaussian 16 at Thu Jun  4 11:48:30 2020.

 ----------------------------------------------------------------
 #p b3lyp/6-31g(d) # scrf=(iefpcm,solvent=Cyclohexane,read) nosym
 ----------------------------------------------------------------

 -----------------------------------------------
 Cycloexadiene, E(B3LYP/6-31G*) xp-pcm for eta=3
 -----------------------------------------------
 Symbolic Z-matrix:
 Charge =  0 Multiplicity = 1

 SCF Done:  E(RB3LYP) =  -233.395872868     A.U. after   10 cycles
 Normal termination of Gaussian 16 at Thu Jun  4 11:48:49 2020.

 ----------------------------------------------------------------
 #p b3lyp/6-31g(d) # scrf=(iefpcm,solvent=Cyclohexane,read) nosym
 ----------------------------------------------------------------

 -----------------------------------------------
 Cycloexadiene, E(B3LYP/6-31G*) xp-pcm for eta=3
 -----------------------------------------------
 Symbolic Z-matrix:
 Charge =  0 Multiplicity = 1

 SCF Done:  E(RB3LYP) =  -233.391494877     A.U. after   10 cycles
 Normal termination of Gaussian 16 at Thu Jun  4 11:49:08 2020.
 Gaussian 16:  ES64L-G16RevA.03 25-Dec-2016

                          Input orientation:
 ---------------------------------------------------------------------
 Center     Atomic      Atomic             Coordinates (Angstroms)
 Number     Number       Type             X           Y           Z
 ---------------------------------------------------------------------
      1          6           0        0.138413   -1.430211   -0.000144
      2          6           0       -1.225538   -0.780080    0.000407
      3          6           0       -1.225541    0.780077   -0.000405
      4          6           0        0.138410    1.430212    0.000135
      5          6           0        1.282673    0.733599    0.000192
      6          6           0        1.282675   -0.733596   -0.000186
      7          1           0        0.157225   -2.518723   -0.000332
      8          1           0       -1.785851   -1.152982   -0.868861
      9          1           0       -1.784697    1.152137   -0.870795
     10          1           0        0.157219    2.518724    0.000302
     11          1           0        2.240035    1.249598    0.000460
     12          1           0        2.240037   -1.249594   -0.000454
     13          1           0       -1.785840    1.152972    0.868876
     14          1           0       -1.784681   -1.152136    0.870808
 ---------------------------------------------------------------------

 SCF Done:  E(RB3LYP) =  -233.386464897     A.U. after   10 cycles

 Alpha  occ. eigenvalues --  -10.17478 -10.17459 -10.17041 -10.17040 -10.16649
 Alpha  occ. eigenvalues --  -10.16617  -0.81692  -0.72780  -0.72577  -0.60718
 Alpha  occ. eigenvalues --   -0.57430  -0.48843  -0.45879  -0.43858  -0.40929
 Alpha  occ. eigenvalues --   -0.39807  -0.37078  -0.35116  -0.31705  -0.30679
 Alpha  occ. eigenvalues --   -0.29496  -0.19356
 Alpha virt. eigenvalues --   -0.00677   0.11462   0.11613   0.15012   0.15334
 Alpha virt. eigenvalues --    0.17043   0.18738   0.18911   0.22054   0.25117
 Alpha virt. eigenvalues --    0.25393   0.26959   0.28372   0.35552   0.46635

 Mulliken charges:
               1
     1  C   -0.146879
     2  C   -0.344247
     3  C   -0.344517
     4  C   -0.146892
     5  C   -0.159162
     6  C   -0.159132
     7  H    0.154282
     8  H    0.171061
     9  H    0.171418
    10  H    0.154277
    11  H    0.153639
    12  H    0.153650
    13  H    0.171423
    14  H    0.171080
 Sum of Mulliken charges =   0.00000

 Dipole moment (field-independent basis, Debye):
    X=             -0.7020    Y=              0.0011    Z=              0.0001  Tot=              0.7020
 Quadrupole moment (field-independent basis, Debye-Ang):
   XX=            -33.1436   YY=            -33.4956   ZZ=            -38.2567
   XY=             -0.0031   XZ=             -0.0001   YZ=              0.0005

 Normal termination of Gaussian 16 at Thu Jun  4 11:49:28 2020.
