 Gaussian 16, Revision A.03,

 ----------------------------------------------------------------
 #p b3lyp/6-31g(d) # scrf=(iefpcm,solvent=Cyclohexane,read) nosym
 ----------------------------------------------------------------

 -----------------------
 endo-2 xp-pcm for eta=3
 -----------------------
 Symbolic Z-matrix:
 Charge =  0 Multiplicity = 1

 SCF Done:  E(RB3LYP) =  -466.865550840     A.U. after   12 cycles
 Normal termination of Gaussian 16 at Thu Jun  4 12:05:37 2020.

 ----------------------------------------------------------------
 #p b3lyp/6-31g(d) # scrf=(iefpcm,solvent=Cyclohexane,read) nosym
 ----------------------------------------------------------------

 -----------------------
 endo-2 xp-pcm for eta=3
 -----------------------
 Symbolic Z-matrix:
 Charge =  0 Multiplicity = 1

 SCF Done:  E(RB3LYP) =  -466.862183610     A.U. after   12 cycles
 Normal termination of Gaussian 16 at Thu Jun  4 12:07:12 2020.

 ----------------------------------------------------------------
 #p b3lyp/6-31g(d) # scrf=(iefpcm,solvent=Cyclohexane,read) nosym
 ----------------------------------------------------------------

 -----------------------
 endo-2 xp-pcm for eta=3
 -----------------------
 Symbolic Z-matrix:
 Charge =  0 Multiplicity = 1

 SCF Done:  E(RB3LYP) =  -466.857670701     A.U. after   12 cycles
 Normal termination of Gaussian 16 at Thu Jun  4 12:08:43 2020.

 ----------------------------------------------------------------
 #p b3lyp/6-31g(d) # scrf=(iefpcm,solvent=Cyclohexane,read) nosym
 ----------------------------------------------------------------

 -----------------------
 endo-2 xp-pcm for eta=3
 -----------------------
 Symbolic Z-matrix:
 Charge =  0 Multiplicity = 1

 SCF Done:  E(RB3LYP) =  -466.850529447     A.U. after   12 cycles
 Normal termination of Gaussian 16 at Thu Jun  4 12:10:16 2020.

 ----------------------------------------------------------------
 #p b3lyp/6-31g(d) # scrf=(iefpcm,solvent=Cyclohexane,read) nosym
 ----------------------------------------------------------------

 -----------------------
 endo-2 xp-pcm for eta=3
 -----------------------
 Symbolic Z-matrix:
 Charge =  0 Multiplicity = 1

 SCF Done:  E(RB3LYP) =  -466.842269621     A.U. after   12 cycles
 Normal termination of Gaussian 16 at Thu Jun  4 12:11:52 2020.

 ----------------------------------------------------------------
 #p b3lyp/6-31g(d) # scrf=(iefpcm,solvent=Cyclohexane,read) nosym
 ----------------------------------------------------------------

 -----------------------
 endo-2 xp-pcm for eta=3
 -----------------------
 Symbolic Z-matrix:
 Charge =  0 Multiplicity = 1

 SCF Done:  E(RB3LYP) =  -466.834514809     A.U. after   12 cycles
 Normal termination of Gaussian 16 at Thu Jun  4 12:13:39 2020.
 Gaussian 16:  ES64L-G16RevA.03 25-Dec-2016

                          Input orientation:
 ---------------------------------------------------------------------
 Center     Atomic      Atomic             Coordinates (Angstroms)
 Number     Number       Type             X           Y           Z
 ---------------------------------------------------------------------
      1          6           0       -2.454531   -0.620920    0.450078
      2          6           0       -2.429115    0.860192    0.177901
      3          6           0       -1.411688    1.453495   -0.452012
      4          6           0       -0.144149    0.761548   -0.892337
      5          6           0       -0.185628   -0.801613   -0.789740
      6          6           0       -1.604183   -1.370946   -0.585116
      7          1           0       -1.446210    2.528854   -0.632087
      8          1           0       -3.282020    1.454343    0.503764
      9          1           0       -2.092649   -0.822074    1.469083
     10          1           0       -3.486923   -0.994204    0.418758
     11          1           0        0.057528    1.047828   -1.935726
     12          1           0        0.169231   -1.207683   -1.746829
     13          1           0       -2.132404   -1.318363   -1.546324
     14          1           0       -1.534534   -2.436262   -0.327132
     15          6           0        0.716641   -0.470708    1.551966
     16          6           0        0.862900   -1.264979    0.274427
     17          1           0        0.549920   -0.955102    2.511169
     18          1           0        0.766306   -2.343321    0.443899
     19          6           0        2.267636   -0.935217   -0.307517
     20          1           0        3.039458   -1.259338    0.398554
     21          1           0        2.424242   -1.498287   -1.236154
     22          6           0        0.843594    0.852001    1.392785
     23          1           0        0.780145    1.572240    2.204115
     24          6           0        1.068138    1.281056   -0.039061
     25          1           0        1.146978    2.369349   -0.136763
     26          6           0        2.359537    0.594607   -0.563515
     27          1           0        3.233257    1.023470   -0.061341
     28          1           0        2.472773    0.807458   -1.634143
 ---------------------------------------------------------------------

 SCF Done:  E(RB3LYP) =  -466.828660106     A.U. after   12 cycles

 Alpha  occ. eigenvalues --  -10.17447 -10.17423 -10.17174 -10.17146 -10.16514
 Alpha  occ. eigenvalues --  -10.16487 -10.16446 -10.16322 -10.16206 -10.16091
 Alpha  occ. eigenvalues --  -10.16017 -10.15926  -0.85148  -0.79286  -0.74864
 Alpha  occ. eigenvalues --   -0.72367  -0.71440  -0.69828  -0.60476  -0.58691
 Alpha  occ. eigenvalues --   -0.57235  -0.56644  -0.49741  -0.49429  -0.47093
 Alpha  occ. eigenvalues --   -0.45082  -0.44161  -0.42793  -0.40652  -0.39225
 Alpha  occ. eigenvalues --   -0.38020  -0.37506  -0.36179  -0.35833  -0.35295
 Alpha  occ. eigenvalues --   -0.34066  -0.33831  -0.31460  -0.30978  -0.27754
 Alpha  occ. eigenvalues --   -0.27529  -0.27042  -0.22442  -0.22204
 Alpha virt. eigenvalues --    0.03534   0.04529   0.09819   0.13030   0.13876
 Alpha virt. eigenvalues --    0.14369   0.14634   0.16943   0.17574   0.17943
 Alpha virt. eigenvalues --    0.18999   0.19250   0.19469   0.20547   0.21124

 Mulliken charges:
               1
     1  C   -0.323112
     2  C   -0.148538
     3  C   -0.131722
     4  C   -0.148884
     5  C   -0.101479
     6  C   -0.311633
     7  H    0.141127
     8  H    0.147133
     9  H    0.160737
    10  H    0.155866
    11  H    0.144176
    12  H    0.136595
    13  H    0.153177
    14  H    0.144010
    15  C   -0.142515
    16  C   -0.159027
    17  H    0.152226
    18  H    0.134527
    19  C   -0.305439
    20  H    0.155201
    21  H    0.149189
    22  C   -0.141665
    23  H    0.154657
    24  C   -0.157875
    25  H    0.138342
    26  C   -0.301753
    27  H    0.158189
    28  H    0.148487
 Sum of Mulliken charges =   0.00000

 Dipole moment (field-independent basis, Debye):
    X=              0.2341    Y=             -0.2005    Z=             -0.1566  Tot=              0.3457
 Quadrupole moment (field-independent basis, Debye-Ang):
   XX=            -72.3978   YY=            -69.7042   ZZ=            -71.5486
   XY=              0.7181   XZ=             -1.3427   YZ=             -0.3644

 Normal termination of Gaussian 16 at Thu Jun  4 12:15:25 2020.
