 Gaussian 16, Revision A.03,

 -----------------------------------------------------------------
 #p ub3lyp/6-31g(d) # scrf=(iefpcm,solvent=Cyclohexane,read) nosym
 -----------------------------------------------------------------

 -------------------------
 endo-2TS xp-pcm for eta=3
 -------------------------
 Symbolic Z-matrix:
 Charge =  0 Multiplicity = 1

 SCF Done:  E(UB3LYP) =  -466.787678974     A.U. after   13 cycles
 Normal termination of Gaussian 16 at Thu Jun  4 11:51:32 2020.

 -----------------------------------------------------------------
 #p ub3lyp/6-31g(d) # scrf=(iefpcm,solvent=Cyclohexane,read) nosym
 -----------------------------------------------------------------

 -------------------------
 endo-2TS xp-pcm for eta=3
 -------------------------
 Symbolic Z-matrix:
 Charge =  0 Multiplicity = 1

 SCF Done:  E(UB3LYP) =  -466.784512484     A.U. after   13 cycles
 Normal termination of Gaussian 16 at Thu Jun  4 11:53:40 2020.

 -----------------------------------------------------------------
 #p ub3lyp/6-31g(d) # scrf=(iefpcm,solvent=Cyclohexane,read) nosym
 -----------------------------------------------------------------

 -------------------------
 endo-2TS xp-pcm for eta=3
 -------------------------
 Symbolic Z-matrix:
 Charge =  0 Multiplicity = 1

 SCF Done:  E(UB3LYP) =  -466.779804908     A.U. after   13 cycles
 Normal termination of Gaussian 16 at Thu Jun  4 11:55:49 2020.

 -----------------------------------------------------------------
 #p ub3lyp/6-31g(d) # scrf=(iefpcm,solvent=Cyclohexane,read) nosym
 -----------------------------------------------------------------

 -------------------------
 endo-2TS xp-pcm for eta=3
 -------------------------
 Symbolic Z-matrix:
 Charge =  0 Multiplicity = 1

 SCF Done:  E(UB3LYP) =  -466.773090735     A.U. after   13 cycles
 Normal termination of Gaussian 16 at Thu Jun  4 11:57:55 2020.

 -----------------------------------------------------------------
 #p ub3lyp/6-31g(d) # scrf=(iefpcm,solvent=Cyclohexane,read) nosym
 -----------------------------------------------------------------

 -------------------------
 endo-2TS xp-pcm for eta=3
 -------------------------
 Symbolic Z-matrix:
 Charge =  0 Multiplicity = 1

 SCF Done:  E(UB3LYP) =  -466.763075295     A.U. after   13 cycles
 Normal termination of Gaussian 16 at Thu Jun  4 12:00:00 2020.

 -----------------------------------------------------------------
 #p ub3lyp/6-31g(d) # scrf=(iefpcm,solvent=Cyclohexane,read) nosym
 -----------------------------------------------------------------

 -------------------------
 endo-2TS xp-pcm for eta=3
 -------------------------
 Symbolic Z-matrix:
 Charge =  0 Multiplicity = 1

 SCF Done:  E(UB3LYP) =  -466.757841616     A.U. after   13 cycles
 Normal termination of Gaussian 16 at Thu Jun  4 12:02:09 2020.
 Gaussian 16:  ES64L-G16RevA.03 25-Dec-2016

                          Input orientation:
 ---------------------------------------------------------------------
 Center     Atomic      Atomic             Coordinates (Angstroms)
 Number     Number       Type             X           Y           Z
 ---------------------------------------------------------------------
      1          6           0        2.468892    0.284095   -0.708957
      2          6           0        1.667254    1.330389    0.031252
      3          6           0        1.087601    1.075991    1.256922
      4          6           0        0.689250   -0.234741    1.575517
      5          6           0        0.886557   -1.229380    0.609039
      6          6           0        2.185072   -1.148363   -0.185946
      7          1           0        0.754870    1.903944    1.878564
      8          1           0        1.804474    2.361213   -0.290944
      9          1           0        2.289282    0.358101   -1.789365
     10          1           0        3.538694    0.506111   -0.581025
     11          1           0        0.057564   -0.414132    2.441200
     12          1           0        0.559304   -2.241378    0.845590
     13          1           0        2.995597   -1.451049    0.490252
     14          1           0        2.187529   -1.871427   -1.009641
     15          6           0       -0.429793    0.553269   -1.228382
     16          6           0       -0.468367   -0.818307   -0.924402
     17          1           0        0.178899    0.920914   -2.045953
     18          1           0        0.039438   -1.478372   -1.626777
     19          6           0       -1.793403   -1.381477   -0.412965
     20          1           0       -2.433705   -1.525729   -1.296815
     21          1           0       -1.657728   -2.376149    0.027843
     22          6           0       -1.419929    1.435138   -0.644601
     23          1           0       -1.363311    2.495516   -0.884397
     24          6           0       -2.359563    1.000047    0.221263
     25          1           0       -3.040678    1.712474    0.683525
     26          6           0       -2.532766   -0.458144    0.574312
     27          1           0       -3.601447   -0.715834    0.575953
     28          1           0       -2.193607   -0.635306    1.603677
 ---------------------------------------------------------------------

 SCF Done:  E(UB3LYP) =  -466.751410024     A.U. after   12 cycles

 Alpha  occ. eigenvalues --  -10.18006 -10.17700 -10.17457 -10.17148 -10.17026
 Alpha  occ. eigenvalues --  -10.16859 -10.16761 -10.16619 -10.16355 -10.16205
 Alpha  occ. eigenvalues --  -10.16015 -10.15805  -0.82770  -0.80475  -0.72947
 Alpha  occ. eigenvalues --   -0.72544  -0.71880  -0.70961  -0.59712  -0.59305
 Alpha  occ. eigenvalues --   -0.57910  -0.56999  -0.49243  -0.48155  -0.47112
 Alpha  occ. eigenvalues --   -0.45626  -0.43701  -0.42709  -0.39860  -0.39750
 Alpha  occ. eigenvalues --   -0.38910  -0.38256  -0.37629  -0.37082  -0.35241
 Alpha  occ. eigenvalues --   -0.34203  -0.32233  -0.31380  -0.30839  -0.30130
 Alpha  occ. eigenvalues --   -0.29552  -0.24874  -0.21513  -0.16126
 Alpha virt. eigenvalues --   -0.02693   0.03401   0.07896   0.09365   0.12728
 Alpha virt. eigenvalues --    0.12970   0.14436   0.15405   0.15525   0.16907
 Alpha virt. eigenvalues --    0.17552   0.17857   0.20132   0.20326   0.21294

  Beta  occ. eigenvalues --  -10.18006 -10.17700 -10.17457 -10.17148 -10.17026
  Beta  occ. eigenvalues --  -10.16859 -10.16761 -10.16619 -10.16355 -10.16205
  Beta  occ. eigenvalues --  -10.16015 -10.15805  -0.82770  -0.80475  -0.72947
  Beta  occ. eigenvalues --   -0.72544  -0.71880  -0.70961  -0.59712  -0.59305
  Beta  occ. eigenvalues --   -0.57910  -0.56999  -0.49243  -0.48155  -0.47112
  Beta  occ. eigenvalues --   -0.45626  -0.43701  -0.42709  -0.39860  -0.39750
  Beta  occ. eigenvalues --   -0.38910  -0.38256  -0.37629  -0.37082  -0.35241
  Beta  occ. eigenvalues --   -0.34203  -0.32233  -0.31380  -0.30839  -0.30130
  Beta  occ. eigenvalues --   -0.29552  -0.24874  -0.21513  -0.16126
  Beta virt. eigenvalues --   -0.02693   0.03401   0.07896   0.09365   0.12728
  Beta virt. eigenvalues --    0.12970   0.14436   0.15405   0.15525   0.16907
  Beta virt. eigenvalues --    0.17552   0.17857   0.20132   0.20326   0.21294

 Mulliken charges and spin densities:
               1          2
     1  C   -0.317178   0.000000
     2  C   -0.160840   0.000000
     3  C   -0.127690   0.000000
     4  C   -0.136032   0.000000
     5  C   -0.165341   0.000000
     6  C   -0.312670   0.000000
     7  H    0.147444   0.000000
     8  H    0.147485   0.000000
     9  H    0.152755   0.000000
    10  H    0.167717   0.000000
    11  H    0.146707   0.000000
    12  H    0.148783   0.000000
    13  H    0.166623   0.000000
    14  H    0.152360   0.000000
    15  C   -0.145789   0.000000
    16  C   -0.156947   0.000000
    17  H    0.152451   0.000000
    18  H    0.151696   0.000000
    19  C   -0.313560   0.000000
    20  H    0.161944   0.000000
    21  H    0.147710   0.000000
    22  C   -0.122162   0.000000
    23  H    0.142776   0.000000
    24  C   -0.170774   0.000000
    25  H    0.147283   0.000000
    26  C   -0.322233   0.000000
    27  H    0.158753   0.000000
    28  H    0.158729   0.000000
 Sum of Mulliken charges =   0.00000   0.00000

 Dipole moment (field-independent basis, Debye):
    X=              0.2524    Y=             -0.5379    Z=             -0.3729  Tot=              0.7014
 Quadrupole moment (field-independent basis, Debye-Ang):
   XX=            -71.5118   YY=            -68.6218   ZZ=            -72.1789
   XY=              0.5541   XZ=             -4.0906   YZ=             -0.0883

 Normal termination of Gaussian 16 at Thu Jun  4 12:04:08 2020.
