 Gaussian 16, Revision B.01,
 Gaussian 16:  ES64L-G16RevB.01 20-Dec-2017

 ----------------------------------------------------------------------
 #p wb97xd def2tzvp # scrf=(iefpcm,solvent=Cyclohexane,read) nosym 6d 1
 0f
 ----------------------------------------------------------------------

 ----------------------------------------------------------------
 cyclohexadiene wb97xd/def2tzvp//wb97xd/def2tzvp xp-pcm for eta=3
 ----------------------------------------------------------------
 Symbolic Z-matrix:
 Charge =  0 Multiplicity = 1

                          Input orientation:
 ---------------------------------------------------------------------
 Center     Atomic      Atomic             Coordinates (Angstroms)
 Number     Number       Type             X           Y           Z
 ---------------------------------------------------------------------
      1          6           0       -1.268219   -0.544265    0.160588
      2          6           0       -1.168591    0.784355    0.162078
      3          6           0        0.131055    1.449886   -0.197967
      4          6           0        1.330673    0.590498    0.197963
      5          6           0        1.118597   -0.854108   -0.162114
      6          6           0       -0.107338   -1.375876   -0.160543
      7          1           0        0.141251    1.619717   -1.283290
      8          1           0       -2.213189   -1.028076    0.376236
      9          1           0        2.239150    0.976392   -0.267055
     10          1           0        1.983265   -1.475095   -0.364468
     11          1           0       -0.261383   -2.426260   -0.376190
     12          1           0       -2.034746    1.403292    0.364360
     13          1           0        0.204154    2.434194    0.267093
     14          1           0        1.488138    0.654781    1.283304
 ---------------------------------------------------------------------

 SCF Done:  E(RwB97XD) =  -233.427605095     A.U. after   12 cycles

 Alpha  occ. eigenvalues --  -10.28587 -10.28564 -10.28478 -10.28477 -10.28153
 Alpha  occ. eigenvalues --  -10.28118  -0.94287  -0.84194  -0.84075  -0.71360
 Alpha  occ. eigenvalues --   -0.68088  -0.59889  -0.57691  -0.52992  -0.50964
 Alpha  occ. eigenvalues --   -0.50063  -0.47491  -0.45326  -0.41381  -0.39611
 Alpha  occ. eigenvalues --   -0.39302  -0.29275
 Alpha virt. eigenvalues --    0.04075   0.11580   0.13732   0.15536   0.16108
 Alpha virt. eigenvalues --    0.16420   0.18146   0.18201   0.19934   0.21809
 Alpha virt. eigenvalues --    0.24604   0.25589   0.27545   0.28378   0.28801

 Mulliken charges:
               1
     1  C   -0.156621
     2  C   -0.204588
     3  C   -0.157878
     4  C   -0.157734
     5  C   -0.204660
     6  C   -0.156656
     7  H    0.105111
     8  H    0.147472
     9  H    0.121741
    10  H    0.144734
    11  H    0.147460
    12  H    0.144736
    13  H    0.121750
    14  H    0.105133
 Sum of Mulliken charges =  -0.00000

 Dipole moment (field-independent basis, Debye):
    X=              0.3355    Y=              0.4683    Z=              0.0000  Tot=              0.5761
 Quadrupole moment (field-independent basis, Debye-Ang):
   XX=            -34.5899   YY=            -34.3439   ZZ=            -39.3450
   XY=              0.3624   XZ=             -0.6075   YZ=              0.4350

 Normal termination of Gaussian 16 at Mon Aug  3 13:32:11 2020.
