 Gaussian 16, Revision B.01,

 ----------------------------------------------------------------------
 #p wb97xd def2tzvp # scrf=(iefpcm,solvent=Cyclohexane,read) nosym 6d 1
 0f
 ----------------------------------------------------------------------

 ----------------------------------------------------------------
 cyclohexadiene wb97xd/def2tzvp//wb97xd/def2tzvp xp-pcm for eta=3
 ----------------------------------------------------------------
 Symbolic Z-matrix:
 Charge =  0 Multiplicity = 1

 SCF Done:  E(RwB97XD) =  -233.421808968     A.U. after   12 cycles
 Normal termination of Gaussian 16 at Mon Aug  3 17:46:02 2020.

 ----------------------------------------------------------------------
 #p wb97xd def2tzvp # scrf=(iefpcm,solvent=Cyclohexane,read) nosym 6d 1
 0f
 ----------------------------------------------------------------------

 ----------------------------------------------------------------
 cyclohexadiene wb97xd/def2tzvp//wb97xd/def2tzvp xp-pcm for eta=3
 ----------------------------------------------------------------
 Symbolic Z-matrix:
 Charge =  0 Multiplicity = 1

 SCF Done:  E(RwB97XD) =  -233.419764340     A.U. after   12 cycles
 Normal termination of Gaussian 16 at Mon Aug  3 17:47:12 2020.

 ----------------------------------------------------------------------
 #p wb97xd def2tzvp # scrf=(iefpcm,solvent=Cyclohexane,read) nosym 6d 1
 0f
 ----------------------------------------------------------------------

 ----------------------------------------------------------------
 cyclohexadiene wb97xd/def2tzvp//wb97xd/def2tzvp xp-pcm for eta=3
 ----------------------------------------------------------------
 Symbolic Z-matrix:
 Charge =  0 Multiplicity = 1

 SCF Done:  E(RwB97XD) =  -233.416915264     A.U. after   12 cycles
 Normal termination of Gaussian 16 at Mon Aug  3 17:48:20 2020.

 ----------------------------------------------------------------------
 #p wb97xd def2tzvp # scrf=(iefpcm,solvent=Cyclohexane,read) nosym 6d 1
 0f
 ----------------------------------------------------------------------

 ----------------------------------------------------------------
 cyclohexadiene wb97xd/def2tzvp//wb97xd/def2tzvp xp-pcm for eta=3
 ----------------------------------------------------------------
 Symbolic Z-matrix:
 Charge =  0 Multiplicity = 1

 SCF Done:  E(RwB97XD) =  -233.412758048     A.U. after   12 cycles
 Normal termination of Gaussian 16 at Mon Aug  3 17:49:28 2020.

 ----------------------------------------------------------------------
 #p wb97xd def2tzvp # scrf=(iefpcm,solvent=Cyclohexane,read) nosym 6d 1
 0f
 ----------------------------------------------------------------------

 ----------------------------------------------------------------
 cyclohexadiene wb97xd/def2tzvp//wb97xd/def2tzvp xp-pcm for eta=3
 ----------------------------------------------------------------
 Symbolic Z-matrix:
 Charge =  0 Multiplicity = 1

 SCF Done:  E(RwB97XD) =  -233.407051031     A.U. after   12 cycles
 Normal termination of Gaussian 16 at Mon Aug  3 17:50:37 2020.

 ----------------------------------------------------------------------
 #p wb97xd def2tzvp # scrf=(iefpcm,solvent=Cyclohexane,read) nosym 6d 1
 0f
 ----------------------------------------------------------------------

 ----------------------------------------------------------------
 cyclohexadiene wb97xd/def2tzvp//wb97xd/def2tzvp xp-pcm for eta=3
 ----------------------------------------------------------------
 Symbolic Z-matrix:
 Charge =  0 Multiplicity = 1

 SCF Done:  E(RwB97XD) =  -233.402984511     A.U. after   12 cycles
 Normal termination of Gaussian 16 at Mon Aug  3 17:51:46 2020.
 Gaussian 16:  ES64L-G16RevB.01 20-Dec-2017

                          Input orientation:
 ---------------------------------------------------------------------
 Center     Atomic      Atomic             Coordinates (Angstroms)
 Number     Number       Type             X           Y           Z
 ---------------------------------------------------------------------
      1          6           0       -1.268219   -0.544265    0.160588
      2          6           0       -1.168591    0.784355    0.162078
      3          6           0        0.131055    1.449886   -0.197967
      4          6           0        1.330673    0.590498    0.197963
      5          6           0        1.118597   -0.854108   -0.162114
      6          6           0       -0.107338   -1.375876   -0.160543
      7          1           0        0.141251    1.619717   -1.283290
      8          1           0       -2.213189   -1.028076    0.376236
      9          1           0        2.239150    0.976392   -0.267055
     10          1           0        1.983265   -1.475095   -0.364468
     11          1           0       -0.261383   -2.426260   -0.376190
     12          1           0       -2.034746    1.403292    0.364360
     13          1           0        0.204154    2.434194    0.267093
     14          1           0        1.488138    0.654781    1.283304
 ---------------------------------------------------------------------

 SCF Done:  E(RwB97XD) =  -233.397779359     A.U. after   12 cycles

 Alpha  occ. eigenvalues --  -10.27282 -10.27260 -10.27175 -10.27175 -10.26853
 Alpha  occ. eigenvalues --  -10.26818  -0.93181  -0.83102  -0.82965  -0.70251
 Alpha  occ. eigenvalues --   -0.66994  -0.58762  -0.56588  -0.51876  -0.49825
 Alpha  occ. eigenvalues --   -0.48908  -0.46315  -0.44189  -0.40222  -0.38456
 Alpha  occ. eigenvalues --   -0.38239  -0.28179
 Alpha virt. eigenvalues --    0.05395   0.14588   0.16081   0.19021   0.19181
 Alpha virt. eigenvalues --    0.19309   0.21265   0.21406   0.23140   0.25119
 Alpha virt. eigenvalues --    0.27093   0.28669   0.29963   0.31171   0.31679

 Mulliken charges:
               1
     1  C   -0.160771
     2  C   -0.206211
     3  C   -0.181022
     4  C   -0.182088
     5  C   -0.205726
     6  C   -0.161086
     7  H    0.117081
     8  H    0.152678
     9  H    0.128337
    10  H    0.150364
    11  H    0.152684
    12  H    0.150306
    13  H    0.128259
    14  H    0.117195
 Sum of Mulliken charges =  -0.00000

 Dipole moment (field-independent basis, Debye):
    X=              0.3527    Y=              0.4921    Z=              0.0001  Tot=              0.6054
 Quadrupole moment (field-independent basis, Debye-Ang):
   XX=            -33.6573   YY=            -33.4135   ZZ=            -38.6118
   XY=              0.3608   XZ=             -0.6288   YZ=              0.4494

 Normal termination of Gaussian 16 at Mon Aug  3 17:52:55 2020.
