 Gaussian 16, Revision B.01,
 Gaussian 16:  ES64L-G16RevB.01 20-Dec-2017

 ----------------------------------------------------------------------
 #p uwb97xd guess=mix def2tzvp # scrf=(iefpcm,solvent=Cyclohexane,read)
  nosym 6d 10f
 ----------------------------------------------------------------------

 -----------------------
 endo-2 xp-pcm for eta=3
 -----------------------
 Symbolic Z-matrix:
 Charge =  0 Multiplicity = 1

                          Input orientation:
 ---------------------------------------------------------------------
 Center     Atomic      Atomic             Coordinates (Angstroms)
 Number     Number       Type             X           Y           Z
 ---------------------------------------------------------------------
      1          6           0       -3.106560   -0.437378    0.291938
      2          6           0       -0.848443   -0.283188   -1.412362
      3          1           0       -4.009580   -0.509623    0.886930
      4          1           0        0.059937   -0.215575   -1.999027
      5          6           0        1.250446    1.448137    0.910401
      6          6           0        0.848443    0.283188    1.412362
      7          1           0        0.670918    2.349204    1.073365
      8          1           0       -0.059937    0.215575    1.999027
      9          6           0        1.671088   -0.961349    1.237510
     10          1           0        2.316912   -1.067273    2.119278
     11          1           0        1.024124   -1.840049    1.224471
     12          6           0        2.491494    1.537477    0.138807
     13          1           0        2.894509    2.517243   -0.088123
     14          6           0        3.106560    0.437378   -0.291938
     15          1           0        4.009580    0.509623   -0.886930
     16          6           0        2.527393   -0.925952   -0.029998
     17          1           0        1.916886   -1.211409   -0.895423
     18          1           0        3.321807   -1.671334    0.037592
     19          6           0       -1.250446   -1.448137   -0.910401
     20          1           0       -0.670918   -2.349204   -1.073365
     21          6           0       -2.491494   -1.537477   -0.138807
     22          1           0       -2.894509   -2.517243    0.088123
     23          6           0       -1.671088    0.961349   -1.237510
     24          1           0       -1.024124    1.840049   -1.224471
     25          1           0       -2.316912    1.067273   -2.119278
     26          6           0       -2.527393    0.925952    0.029998
     27          1           0       -3.321807    1.671334   -0.037592
     28          1           0       -1.916886    1.211409    0.895423
 ---------------------------------------------------------------------

 SCF Done:  E(UwB97XD) =  -466.860378638     A.U. after   17 cycles

 Alpha  occ. eigenvalues --  -10.28415 -10.28414 -10.28334 -10.28334 -10.28316
 Alpha  occ. eigenvalues --  -10.28315 -10.28248 -10.28248 -10.28022 -10.28022
 Alpha  occ. eigenvalues --  -10.27778 -10.27777  -0.94151  -0.93820  -0.84116
 Alpha  occ. eigenvalues --   -0.84108  -0.83966  -0.83765  -0.71284  -0.71252
 Alpha  occ. eigenvalues --   -0.67973  -0.67944  -0.59787  -0.59653  -0.57508
 Alpha  occ. eigenvalues --   -0.57022  -0.53371  -0.52706  -0.50935  -0.50876
 Alpha  occ. eigenvalues --   -0.50032  -0.49625  -0.47322  -0.47085  -0.45206
 Alpha  occ. eigenvalues --   -0.44971  -0.41236  -0.41117  -0.39646  -0.39303
 Alpha  occ. eigenvalues --   -0.39245  -0.39162  -0.29802  -0.28000
 Alpha virt. eigenvalues --    0.03915   0.04454   0.10531   0.12224   0.13269
 Alpha virt. eigenvalues --    0.14251   0.14518   0.15477   0.15564   0.15952
 Alpha virt. eigenvalues --    0.16882   0.16913   0.17116   0.18227   0.19870

  Beta  occ. eigenvalues --  -10.28415 -10.28414 -10.28334 -10.28334 -10.28316
  Beta  occ. eigenvalues --  -10.28315 -10.28248 -10.28248 -10.28022 -10.28022
  Beta  occ. eigenvalues --  -10.27778 -10.27777  -0.94151  -0.93820  -0.84116
  Beta  occ. eigenvalues --   -0.84108  -0.83966  -0.83765  -0.71284  -0.71252
  Beta  occ. eigenvalues --   -0.67973  -0.67944  -0.59787  -0.59653  -0.57508
  Beta  occ. eigenvalues --   -0.57022  -0.53371  -0.52706  -0.50935  -0.50876
  Beta  occ. eigenvalues --   -0.50032  -0.49625  -0.47322  -0.47085  -0.45206
  Beta  occ. eigenvalues --   -0.44971  -0.41236  -0.41117  -0.39646  -0.39303
  Beta  occ. eigenvalues --   -0.39245  -0.39162  -0.29802  -0.28000
  Beta virt. eigenvalues --    0.03915   0.04454   0.10531   0.12224   0.13269
  Beta virt. eigenvalues --    0.14251   0.14518   0.15477   0.15564   0.15952
  Beta virt. eigenvalues --    0.16882   0.16913   0.17116   0.18227   0.19870

 Mulliken charges and spin densities:
               1          2
     1  C   -0.209647  -0.000001
     2  C   -0.186921  -0.000000
     3  H    0.142502   0.000000
     4  H    0.155561   0.000000
     5  C   -0.165256  -0.000001
     6  C   -0.186814   0.000000
     7  H    0.150072   0.000000
     8  H    0.155513  -0.000000
     9  C   -0.175563  -0.000001
    10  H    0.116918   0.000000
    11  H    0.128309   0.000000
    12  C   -0.158641  -0.000000
    13  H    0.145660  -0.000000
    14  C   -0.209460   0.000001
    15  H    0.142468  -0.000000
    16  C   -0.174198   0.000000
    17  H    0.106564   0.000000
    18  H    0.124430  -0.000000
    19  C   -0.165106   0.000001
    20  H    0.149926  -0.000000
    21  C   -0.158461  -0.000000
    22  H    0.145650   0.000000
    23  C   -0.175607   0.000001
    24  H    0.128340  -0.000000
    25  H    0.116916  -0.000000
    26  C   -0.174111  -0.000000
    27  H    0.124431   0.000000
    28  H    0.106524   0.000000
 Sum of Mulliken charges =  -0.00000   0.00000

 Dipole moment (field-independent basis, Debye):
    X=             -0.0009    Y=              0.0008    Z=              0.0004  Tot=              0.0013
 Quadrupole moment (field-independent basis, Debye-Ang):
   XX=            -73.0150   YY=            -69.7114   ZZ=            -76.2435
   XY=             -3.1547   XZ=             -4.1460   YZ=             -1.6541

 Normal termination of Gaussian 16 at Mon Aug  3 13:47:10 2020.
