 Gaussian 16, Revision B.01,
 Gaussian 16:  ES64L-G16RevB.01 20-Dec-2017

 ----------------------------------------------------------------------
 #p uwb97xd guess=mix def2tzvp # scrf=(iefpcm,solvent=Cyclohexane,read)
  nosym 6d 10f
 ----------------------------------------------------------------------

 -----------------------
 endo-2 xp-pcm for eta=3
 -----------------------
 Symbolic Z-matrix:
 Charge =  0 Multiplicity = 1

                          Input orientation:
 ---------------------------------------------------------------------
 Center     Atomic      Atomic             Coordinates (Angstroms)
 Number     Number       Type             X           Y           Z
 ---------------------------------------------------------------------
      1          6           0       -3.118021   -0.436434    0.246814
      2          6           0       -0.540801   -0.189187   -0.905365
      3          1           0       -4.082489   -0.549871    0.728045
      4          1           0        0.377295   -0.116929   -1.473260
      5          6           0        1.091386    1.404996    0.687212
      6          6           0        0.540801    0.189187    0.905365
      7          1           0        0.527763    2.310929    0.871630
      8          1           0       -0.377295    0.116929    1.473260
      9          6           0        1.464971   -0.999714    0.988105
     10          1           0        1.905333   -0.956079    1.991084
     11          1           0        0.918248   -1.940154    0.928320
     12          6           0        2.416056    1.516900    0.113501
     13          1           0        2.826400    2.506211   -0.052048
     14          6           0        3.118021    0.436434   -0.246814
     15          1           0        4.082489    0.549871   -0.728045
     16          6           0        2.591807   -0.958352   -0.044272
     17          1           0        2.252673   -1.356402   -1.008685
     18          1           0        3.400675   -1.620592    0.272198
     19          6           0       -1.091386   -1.404996   -0.687212
     20          1           0       -0.527763   -2.310929   -0.871630
     21          6           0       -2.416056   -1.516900   -0.113501
     22          1           0       -2.826400   -2.506211    0.052048
     23          6           0       -1.464971    0.999714   -0.988105
     24          1           0       -0.918248    1.940154   -0.928320
     25          1           0       -1.905333    0.956079   -1.991084
     26          6           0       -2.591807    0.958352    0.044272
     27          1           0       -3.400675    1.620592   -0.272198
     28          1           0       -2.252673    1.356402    1.008685
 ---------------------------------------------------------------------

 SCF Done:  E(UwB97XD) =  -466.823302947     A.U. after   22 cycles

 Alpha  occ. eigenvalues --  -10.28989 -10.28988 -10.28596 -10.28596 -10.28293
 Alpha  occ. eigenvalues --  -10.28293 -10.28219 -10.28218 -10.28015 -10.28015
 Alpha  occ. eigenvalues --  -10.27314 -10.27314  -0.95038  -0.93434  -0.85161
 Alpha  occ. eigenvalues --   -0.84439  -0.83659  -0.83113  -0.71609  -0.70709
 Alpha  occ. eigenvalues --   -0.68980  -0.67843  -0.60143  -0.59829  -0.58068
 Alpha  occ. eigenvalues --   -0.56364  -0.53401  -0.53233  -0.51117  -0.50559
 Alpha  occ. eigenvalues --   -0.49789  -0.48742  -0.47810  -0.47195  -0.46389
 Alpha  occ. eigenvalues --   -0.44764  -0.41583  -0.41075  -0.39911  -0.39435
 Alpha  occ. eigenvalues --   -0.39110  -0.38082  -0.31373  -0.24545
 Alpha virt. eigenvalues --    0.00143   0.07840   0.10439   0.12439   0.13315
 Alpha virt. eigenvalues --    0.14474   0.14538   0.15496   0.15914   0.16380
 Alpha virt. eigenvalues --    0.16394   0.17317   0.17930   0.19019   0.19948

  Beta  occ. eigenvalues --  -10.28989 -10.28988 -10.28596 -10.28596 -10.28293
  Beta  occ. eigenvalues --  -10.28293 -10.28219 -10.28218 -10.28015 -10.28015
  Beta  occ. eigenvalues --  -10.27314 -10.27314  -0.95038  -0.93434  -0.85161
  Beta  occ. eigenvalues --   -0.84439  -0.83659  -0.83113  -0.71609  -0.70709
  Beta  occ. eigenvalues --   -0.68980  -0.67843  -0.60143  -0.59829  -0.58068
  Beta  occ. eigenvalues --   -0.56364  -0.53401  -0.53233  -0.51117  -0.50559
  Beta  occ. eigenvalues --   -0.49789  -0.48742  -0.47810  -0.47195  -0.46389
  Beta  occ. eigenvalues --   -0.44764  -0.41583  -0.41075  -0.39911  -0.39435
  Beta  occ. eigenvalues --   -0.39110  -0.38082  -0.31373  -0.24545
  Beta virt. eigenvalues --    0.00143   0.07840   0.10439   0.12439   0.13315
  Beta virt. eigenvalues --    0.14474   0.14538   0.15496   0.15914   0.16380
  Beta virt. eigenvalues --    0.16394   0.17317   0.17930   0.19019   0.19948

 Mulliken charges and spin densities:
               1          2
     1  C   -0.211040  -0.000000
     2  C   -0.197228   0.000000
     3  H    0.142166   0.000000
     4  H    0.169340  -0.000000
     5  C   -0.143979   0.000000
     6  C   -0.197303  -0.000000
     7  H    0.151940  -0.000000
     8  H    0.169346   0.000000
     9  C   -0.201889  -0.000000
    10  H    0.121082   0.000000
    11  H    0.141363   0.000000
    12  C   -0.178433  -0.000000
    13  H    0.144654   0.000000
    14  C   -0.211131   0.000000
    15  H    0.142169  -0.000000
    16  C   -0.182749   0.000000
    17  H    0.117101  -0.000000
    18  H    0.127837  -0.000000
    19  C   -0.144107  -0.000000
    20  H    0.151953   0.000000
    21  C   -0.178594   0.000000
    22  H    0.144678  -0.000000
    23  C   -0.201861   0.000000
    24  H    0.141356  -0.000000
    25  H    0.121128  -0.000000
    26  C   -0.182743  -0.000000
    27  H    0.127847   0.000000
    28  H    0.117097   0.000000
 Sum of Mulliken charges =  -0.00000   0.00000

 Dipole moment (field-independent basis, Debye):
    X=              0.0003    Y=             -0.0005    Z=             -0.0001  Tot=              0.0006
 Quadrupole moment (field-independent basis, Debye-Ang):
   XX=            -72.5511   YY=            -70.1626   ZZ=            -76.9071
   XY=             -3.2059   XZ=             -3.1517   YZ=             -1.1376

 Normal termination of Gaussian 16 at Mon Aug  3 16:07:05 2020.
