 Gaussian 16, Revision B.01,

 ----------------------------------------------------------------------
 #p uwb97xd guess=mix def2tzvp # scrf=(iefpcm,solvent=Cyclohexane,read)
  nosym 6d 10f
 ----------------------------------------------------------------------

 -----------------------
 endo-2 xp-pcm for eta=3
 -----------------------
 Symbolic Z-matrix:
 Charge =  0 Multiplicity = 1

 SCF Done:  E(UwB97XD) =  -466.850048115     A.U. after   17 cycles
 Normal termination of Gaussian 16 at Mon Aug  3 22:18:25 2020.

 ----------------------------------------------------------------------
 #p uwb97xd guess=mix def2tzvp # scrf=(iefpcm,solvent=Cyclohexane,read)
  nosym 6d 10f
 ----------------------------------------------------------------------

 -----------------------
 endo-2 xp-pcm for eta=3
 -----------------------
 Symbolic Z-matrix:
 Charge =  0 Multiplicity = 1

 SCF Done:  E(UwB97XD) =  -466.846926780     A.U. after   17 cycles
 Normal termination of Gaussian 16 at Mon Aug  3 22:23:44 2020.

 ----------------------------------------------------------------------
 #p uwb97xd guess=mix def2tzvp # scrf=(iefpcm,solvent=Cyclohexane,read)
  nosym 6d 10f
 ----------------------------------------------------------------------

 -----------------------
 endo-2 xp-pcm for eta=3
 -----------------------
 Symbolic Z-matrix:
 Charge =  0 Multiplicity = 1

 SCF Done:  E(UwB97XD) =  -466.842403975     A.U. after   17 cycles
 Normal termination of Gaussian 16 at Mon Aug  3 22:29:01 2020.

 ----------------------------------------------------------------------
 #p uwb97xd guess=mix def2tzvp # scrf=(iefpcm,solvent=Cyclohexane,read)
  nosym 6d 10f
 ----------------------------------------------------------------------

 -----------------------
 endo-2 xp-pcm for eta=3
 -----------------------
 Symbolic Z-matrix:
 Charge =  0 Multiplicity = 1

 SCF Done:  E(UwB97XD) =  -466.834251690     A.U. after   17 cycles
 Normal termination of Gaussian 16 at Mon Aug  3 22:34:19 2020.

 ----------------------------------------------------------------------
 #p uwb97xd guess=mix def2tzvp # scrf=(iefpcm,solvent=Cyclohexane,read)
  nosym 6d 10f
 ----------------------------------------------------------------------

 -----------------------
 endo-2 xp-pcm for eta=3
 -----------------------
 Symbolic Z-matrix:
 Charge =  0 Multiplicity = 1

 SCF Done:  E(UwB97XD) =  -466.825650273     A.U. after   17 cycles
 Normal termination of Gaussian 16 at Mon Aug  3 22:39:37 2020.

 ----------------------------------------------------------------------
 #p uwb97xd guess=mix def2tzvp # scrf=(iefpcm,solvent=Cyclohexane,read)
  nosym 6d 10f
 ----------------------------------------------------------------------

 -----------------------
 endo-2 xp-pcm for eta=3
 -----------------------
 Symbolic Z-matrix:
 Charge =  0 Multiplicity = 1

 SCF Done:  E(UwB97XD) =  -466.819342639     A.U. after   17 cycles
 Normal termination of Gaussian 16 at Mon Aug  3 22:44:58 2020.
 Gaussian 16:  ES64L-G16RevB.01 20-Dec-2017

                          Input orientation:
 ---------------------------------------------------------------------
 Center     Atomic      Atomic             Coordinates (Angstroms)
 Number     Number       Type             X           Y           Z
 ---------------------------------------------------------------------
      1          6           0       -3.121942   -0.439924    0.277771
      2          6           0       -0.797162   -0.267484   -1.333299
      3          1           0       -4.044520   -0.521623    0.840727
      4          1           0        0.132617   -0.192479   -1.884118
      5          6           0        1.213684    1.436717    0.855014
      6          6           0        0.797162    0.267484    1.333299
      7          1           0        0.625474    2.334691    1.002965
      8          1           0       -0.132617    0.192479    1.884118
      9          6           0        1.625967   -0.975882    1.184356
     10          1           0        2.219247   -1.095182    2.100353
     11          1           0        0.977773   -1.851608    1.125614
     12          6           0        2.478853    1.534377    0.125170
     13          1           0        2.879166    2.517204   -0.093218
     14          6           0        3.121942    0.439924   -0.277771
     15          1           0        4.044520    0.521623   -0.840727
     16          6           0        2.555680   -0.931899   -0.031548
     17          1           0        2.009120   -1.243493   -0.930088
     18          1           0        3.361336   -1.657785    0.093053
     19          6           0       -1.213684   -1.436717   -0.855014
     20          1           0       -0.625474   -2.334691   -1.002965
     21          6           0       -2.478853   -1.534377   -0.125170
     22          1           0       -2.879166   -2.517204    0.093218
     23          6           0       -1.625967    0.975882   -1.184356
     24          1           0       -0.977773    1.851608   -1.125614
     25          1           0       -2.219247    1.095182   -2.100353
     26          6           0       -2.555680    0.931899    0.031548
     27          1           0       -3.361336    1.657785   -0.093053
     28          1           0       -2.009120    1.243493    0.930088
 ---------------------------------------------------------------------

 SCF Done:  E(UwB97XD) =  -466.811573531     A.U. after   17 cycles

 Alpha  occ. eigenvalues --  -10.27277 -10.27273 -10.27140 -10.27137 -10.27090
 Alpha  occ. eigenvalues --  -10.27089 -10.27086 -10.27086 -10.26799 -10.26798
 Alpha  occ. eigenvalues --  -10.26542 -10.26542  -0.93128  -0.92701  -0.83169
 Alpha  occ. eigenvalues --   -0.83103  -0.82911  -0.82718  -0.70318  -0.70237
 Alpha  occ. eigenvalues --   -0.66954  -0.66951  -0.58734  -0.58596  -0.56427
 Alpha  occ. eigenvalues --   -0.55857  -0.52470  -0.51725  -0.49918  -0.49859
 Alpha  occ. eigenvalues --   -0.48918  -0.48479  -0.46251  -0.45926  -0.44099
 Alpha  occ. eigenvalues --   -0.44040  -0.40196  -0.40012  -0.38633  -0.38314
 Alpha  occ. eigenvalues --   -0.38229  -0.38096  -0.28796  -0.26816
 Alpha virt. eigenvalues --    0.04960   0.05827   0.13264   0.14518   0.16381
 Alpha virt. eigenvalues --    0.16792   0.17151   0.18052   0.18328   0.18974
 Alpha virt. eigenvalues --    0.19612   0.19637   0.20078   0.21214   0.22965

  Beta  occ. eigenvalues --  -10.27277 -10.27273 -10.27140 -10.27137 -10.27090
  Beta  occ. eigenvalues --  -10.27089 -10.27086 -10.27086 -10.26799 -10.26798
  Beta  occ. eigenvalues --  -10.26542 -10.26542  -0.93128  -0.92701  -0.83169
  Beta  occ. eigenvalues --   -0.83103  -0.82911  -0.82718  -0.70318  -0.70237
  Beta  occ. eigenvalues --   -0.66954  -0.66951  -0.58734  -0.58596  -0.56427
  Beta  occ. eigenvalues --   -0.55857  -0.52470  -0.51725  -0.49918  -0.49859
  Beta  occ. eigenvalues --   -0.48918  -0.48479  -0.46251  -0.45926  -0.44099
  Beta  occ. eigenvalues --   -0.44040  -0.40196  -0.40012  -0.38633  -0.38314
  Beta  occ. eigenvalues --   -0.38229  -0.38096  -0.28796  -0.26816
  Beta virt. eigenvalues --    0.04960   0.05827   0.13264   0.14518   0.16381
  Beta virt. eigenvalues --    0.16792   0.17151   0.18052   0.18328   0.18974
  Beta virt. eigenvalues --    0.19612   0.19637   0.20078   0.21214   0.22965

 Mulliken charges and spin densities:
               1          2
     1  C   -0.205144  -0.000001
     2  C   -0.196310  -0.000000
     3  H    0.148650   0.000000
     4  H    0.168822   0.000000
     5  C   -0.191067  -0.000000
     6  C   -0.195560  -0.000000
     7  H    0.166865   0.000000
     8  H    0.168958  -0.000000
     9  C   -0.210645  -0.000001
    10  H    0.131393   0.000000
    11  H    0.138998   0.000000
    12  C   -0.160819  -0.000000
    13  H    0.152262  -0.000000
    14  C   -0.204684   0.000001
    15  H    0.148620  -0.000000
    16  C   -0.192810   0.000000
    17  H    0.115326   0.000000
    18  H    0.133218  -0.000000
    19  C   -0.191528   0.000000
    20  H    0.167237  -0.000000
    21  C   -0.160493  -0.000000
    22  H    0.152210   0.000000
    23  C   -0.209289   0.000001
    24  H    0.138775  -0.000000
    25  H    0.131146  -0.000000
    26  C   -0.191918  -0.000000
    27  H    0.132960   0.000000
    28  H    0.114828   0.000000
 Sum of Mulliken charges =  -0.00000  -0.00000

 Dipole moment (field-independent basis, Debye):
    X=             -0.0018    Y=             -0.0003    Z=              0.0007  Tot=              0.0019
 Quadrupole moment (field-independent basis, Debye-Ang):
   XX=            -70.4695   YY=            -68.0984   ZZ=            -74.9904
   XY=             -3.2961   XZ=             -3.9331   YZ=             -1.7169

 Normal termination of Gaussian 16 at Mon Aug  3 22:50:17 2020.
