 Gaussian 16, Revision B.01,
 Gaussian 16:  ES64L-G16RevB.01 20-Dec-2017

 ----------------------------------------------------------------------
 #p uwb97xd guess=mix def2tzvp # scrf=(iefpcm,solvent=Cyclohexane,read)
  nosym 6d 10f
 ----------------------------------------------------------------------

 -----------------------
 endo-2 xp-pcm for eta=3
 -----------------------
 Symbolic Z-matrix:
 Charge =  0 Multiplicity = 1

                          Input orientation:
 ---------------------------------------------------------------------
 Center     Atomic      Atomic             Coordinates (Angstroms)
 Number     Number       Type             X           Y           Z
 ---------------------------------------------------------------------
      1          6           0       -3.118978   -0.431679    0.247428
      2          6           0       -0.498946   -0.160979   -0.842137
      3          1           0       -4.084002   -0.548806    0.725908
      4          1           0        0.353974   -0.115713   -1.511513
      5          6           0        1.104740    1.419096    0.680914
      6          6           0        0.498946    0.160979    0.842137
      7          1           0        0.544380    2.322265    0.886395
      8          1           0       -0.353974    0.115713    1.511513
      9          6           0        1.462618   -0.999815    0.987483
     10          1           0        1.898715   -0.937376    1.990350
     11          1           0        0.929624   -1.949747    0.936184
     12          6           0        2.406372    1.522548    0.118104
     13          1           0        2.824451    2.509227   -0.045547
     14          6           0        3.118978    0.431679   -0.247428
     15          1           0        4.084002    0.548806   -0.725908
     16          6           0        2.592276   -0.958579   -0.043389
     17          1           0        2.248579   -1.357021   -1.006512
     18          1           0        3.401237   -1.622533    0.271000
     19          6           0       -1.104740   -1.419096   -0.680914
     20          1           0       -0.544380   -2.322265   -0.886395
     21          6           0       -2.406372   -1.522548   -0.118104
     22          1           0       -2.824451   -2.509227    0.045547
     23          6           0       -1.462618    0.999815   -0.987483
     24          1           0       -0.929624    1.949747   -0.936184
     25          1           0       -1.898715    0.937376   -1.990350
     26          6           0       -2.592276    0.958579    0.043389
     27          1           0       -3.401236    1.622533   -0.271000
     28          1           0       -2.248578    1.357021    1.006512
 ---------------------------------------------------------------------

 SCF Done:  E(UwB97XD) =  -466.815524907     A.U. after   17 cycles

 Alpha  occ. eigenvalues --  -10.29866 -10.29512 -10.28619 -10.28533 -10.28498
 Alpha  occ. eigenvalues --  -10.28201 -10.28183 -10.28120 -10.28116 -10.28089
 Alpha  occ. eigenvalues --  -10.27916 -10.27590  -0.94974  -0.93187  -0.85111
 Alpha  occ. eigenvalues --   -0.84479  -0.83659  -0.82445  -0.71319  -0.70293
 Alpha  occ. eigenvalues --   -0.69434  -0.67866  -0.60051  -0.59519  -0.58233
 Alpha  occ. eigenvalues --   -0.56372  -0.53379  -0.53116  -0.50899  -0.50055
 Alpha  occ. eigenvalues --   -0.49356  -0.48238  -0.47960  -0.47413  -0.46498
 Alpha  occ. eigenvalues --   -0.44726  -0.41477  -0.41060  -0.39897  -0.39693
 Alpha  occ. eigenvalues --   -0.39078  -0.37500  -0.32243  -0.24268
 Alpha virt. eigenvalues --   -0.00407   0.08824   0.10450   0.12496   0.13154
 Alpha virt. eigenvalues --    0.14207   0.14519   0.15469   0.15969   0.16306
 Alpha virt. eigenvalues --    0.16578   0.17152   0.18184   0.19582   0.20287

  Beta  occ. eigenvalues --  -10.29866 -10.29511 -10.28619 -10.28533 -10.28497
  Beta  occ. eigenvalues --  -10.28201 -10.28184 -10.28120 -10.28117 -10.28088
  Beta  occ. eigenvalues --  -10.27916 -10.27590  -0.94974  -0.93187  -0.85111
  Beta  occ. eigenvalues --   -0.84479  -0.83659  -0.82445  -0.71319  -0.70293
  Beta  occ. eigenvalues --   -0.69433  -0.67866  -0.60051  -0.59519  -0.58233
  Beta  occ. eigenvalues --   -0.56372  -0.53379  -0.53116  -0.50899  -0.50055
  Beta  occ. eigenvalues --   -0.49356  -0.48238  -0.47960  -0.47413  -0.46498
  Beta  occ. eigenvalues --   -0.44726  -0.41477  -0.41060  -0.39897  -0.39693
  Beta  occ. eigenvalues --   -0.39077  -0.37500  -0.32243  -0.24268
  Beta virt. eigenvalues --   -0.00407   0.08824   0.10450   0.12496   0.13154
  Beta virt. eigenvalues --    0.14207   0.14519   0.15469   0.15969   0.16306
  Beta virt. eigenvalues --    0.16578   0.17152   0.18184   0.19582   0.20287

 Mulliken charges and spin densities:
               1          2
     1  C   -0.207630   0.388834
     2  C   -0.175301  -0.221919
     3  H    0.143711  -0.016366
     4  H    0.154156   0.012802
     5  C   -0.154196  -0.496896
     6  C   -0.175289   0.221918
     7  H    0.155378   0.020695
     8  H    0.154193  -0.012802
     9  C   -0.206351  -0.011053
    10  H    0.118817   0.006611
    11  H    0.137338   0.003376
    12  C   -0.174599   0.188917
    13  H    0.143932  -0.007433
    14  C   -0.207634  -0.388831
    15  H    0.143713   0.016366
    16  C   -0.179983   0.025879
    17  H    0.117149  -0.021001
    18  H    0.127534  -0.009402
    19  C   -0.154322   0.496892
    20  H    0.155478  -0.020692
    21  C   -0.174568  -0.188919
    22  H    0.143927   0.007433
    23  C   -0.206354   0.011052
    24  H    0.137332  -0.003376
    25  H    0.118850  -0.006611
    26  C   -0.179973  -0.025879
    27  H    0.127546   0.009402
    28  H    0.117148   0.021002
 Sum of Mulliken charges =  -0.00000  -0.00000

 Dipole moment (field-independent basis, Debye):
    X=              0.0005    Y=             -0.0002    Z=              0.0000  Tot=              0.0006
 Quadrupole moment (field-independent basis, Debye-Ang):
   XX=            -72.4580   YY=            -70.6962   ZZ=            -76.5945
   XY=             -2.9625   XZ=             -3.1342   YZ=             -0.7108

 Normal termination of Gaussian 16 at Mon Aug  3 16:30:10 2020.
