 Gaussian 16, Revision B.01,

 ----------------------------------------------------------------------
 #p uwb97xd guess=mix def2tzvp # scrf=(iefpcm,solvent=Cyclohexane,read)
  nosym 6d 10f
 ----------------------------------------------------------------------

 -----------------------
 endo-2 xp-pcm for eta=3
 -----------------------
 Symbolic Z-matrix:
 Charge =  0 Multiplicity = 1

 SCF Done:  E(UwB97XD) =  -466.848184453     A.U. after   18 cycles
 Normal termination of Gaussian 16 at Tue Aug  4 01:26:40 2020.

 ----------------------------------------------------------------------
 #p uwb97xd guess=mix def2tzvp # scrf=(iefpcm,solvent=Cyclohexane,read)
  nosym 6d 10f
 ----------------------------------------------------------------------

 -----------------------
 endo-2 xp-pcm for eta=3
 -----------------------
 Symbolic Z-matrix:
 Charge =  0 Multiplicity = 1

 SCF Done:  E(UwB97XD) =  -466.844960355     A.U. after   18 cycles
 Normal termination of Gaussian 16 at Tue Aug  4 01:32:19 2020.

 ----------------------------------------------------------------------
 #p uwb97xd guess=mix def2tzvp # scrf=(iefpcm,solvent=Cyclohexane,read)
  nosym 6d 10f
 ----------------------------------------------------------------------

 -----------------------
 endo-2 xp-pcm for eta=3
 -----------------------
 Symbolic Z-matrix:
 Charge =  0 Multiplicity = 1

 SCF Done:  E(UwB97XD) =  -466.839721281     A.U. after   18 cycles
 Normal termination of Gaussian 16 at Tue Aug  4 01:37:55 2020.

 ----------------------------------------------------------------------
 #p uwb97xd guess=mix def2tzvp # scrf=(iefpcm,solvent=Cyclohexane,read)
  nosym 6d 10f
 ----------------------------------------------------------------------

 -----------------------
 endo-2 xp-pcm for eta=3
 -----------------------
 Symbolic Z-matrix:
 Charge =  0 Multiplicity = 1

 SCF Done:  E(UwB97XD) =  -466.832810053     A.U. after   18 cycles
 Normal termination of Gaussian 16 at Tue Aug  4 01:43:31 2020.

 ----------------------------------------------------------------------
 #p uwb97xd guess=mix def2tzvp # scrf=(iefpcm,solvent=Cyclohexane,read)
  nosym 6d 10f
 ----------------------------------------------------------------------

 -----------------------
 endo-2 xp-pcm for eta=3
 -----------------------
 Symbolic Z-matrix:
 Charge =  0 Multiplicity = 1

 SCF Done:  E(UwB97XD) =  -466.823684183     A.U. after   18 cycles
 Normal termination of Gaussian 16 at Tue Aug  4 01:49:08 2020.

 ----------------------------------------------------------------------
 #p uwb97xd guess=mix def2tzvp # scrf=(iefpcm,solvent=Cyclohexane,read)
  nosym 6d 10f
 ----------------------------------------------------------------------

 -----------------------
 endo-2 xp-pcm for eta=3
 -----------------------
 Symbolic Z-matrix:
 Charge =  0 Multiplicity = 1

 SCF Done:  E(UwB97XD) =  -466.817032385     A.U. after   17 cycles
 Normal termination of Gaussian 16 at Tue Aug  4 01:54:30 2020.
 Gaussian 16:  ES64L-G16RevB.01 20-Dec-2017

                          Input orientation:
 ---------------------------------------------------------------------
 Center     Atomic      Atomic             Coordinates (Angstroms)
 Number     Number       Type             X           Y           Z
 ---------------------------------------------------------------------
      1          6           0       -3.127160   -0.441387    0.265808
      2          6           0       -0.742781   -0.253682   -1.253790
      3          1           0       -4.066590   -0.531634    0.798854
      4          1           0        0.204971   -0.172502   -1.771631
      5          6           0        1.175378    1.427467    0.803019
      6          6           0        0.742781    0.253682    1.253790
      7          1           0        0.582914    2.324068    0.940997
      8          1           0       -0.204971    0.172502    1.771631
      9          6           0        1.574588   -0.989808    1.127258
     10          1           0        2.116105   -1.122154    2.072691
     11          1           0        0.927535   -1.861790    1.025285
     12          6           0        2.460878    1.530950    0.111768
     13          1           0        2.860246    2.516008   -0.098202
     14          6           0        3.127160    0.441387   -0.265808
     15          1           0        4.066590    0.531634   -0.798854
     16          6           0        2.572730   -0.937949   -0.034385
     17          1           0        2.091291   -1.273998   -0.960989
     18          1           0        3.384763   -1.644565    0.147485
     19          6           0       -1.175378   -1.427467   -0.803019
     20          1           0       -0.582914   -2.324068   -0.940997
     21          6           0       -2.460878   -1.530950   -0.111768
     22          1           0       -2.860246   -2.516008    0.098202
     23          6           0       -1.574588    0.989808   -1.127258
     24          1           0       -0.927535    1.861790   -1.025285
     25          1           0       -2.116105    1.122154   -2.072691
     26          6           0       -2.572730    0.937949    0.034385
     27          1           0       -3.384763    1.644565   -0.147485
     28          1           0       -2.091291    1.273998    0.960989
 ---------------------------------------------------------------------

 SCF Done:  E(UwB97XD) =  -466.808570571     A.U. after   17 cycles

 Alpha  occ. eigenvalues --  -10.27312 -10.27311 -10.27103 -10.27100 -10.27073
 Alpha  occ. eigenvalues --  -10.27069 -10.27058 -10.27054 -10.26785 -10.26783
 Alpha  occ. eigenvalues --  -10.26439 -10.26429  -0.93169  -0.92600  -0.83274
 Alpha  occ. eigenvalues --   -0.83152  -0.82835  -0.82688  -0.70430  -0.70192
 Alpha  occ. eigenvalues --   -0.67004  -0.66935  -0.58742  -0.58597  -0.56388
 Alpha  occ. eigenvalues --   -0.55688  -0.52611  -0.51768  -0.49943  -0.49898
 Alpha  occ. eigenvalues --   -0.48861  -0.48373  -0.46301  -0.45845  -0.44183
 Alpha  occ. eigenvalues --   -0.44025  -0.40244  -0.39969  -0.38694  -0.38325
 Alpha  occ. eigenvalues --   -0.38207  -0.38005  -0.28819  -0.26592
 Alpha virt. eigenvalues --    0.04723   0.06125   0.13317   0.14717   0.16462
 Alpha virt. eigenvalues --    0.16880   0.17287   0.18105   0.18457   0.19052
 Alpha virt. eigenvalues --    0.19519   0.19543   0.20102   0.21219   0.22982

  Beta  occ. eigenvalues --  -10.27312 -10.27311 -10.27103 -10.27100 -10.27073
  Beta  occ. eigenvalues --  -10.27069 -10.27058 -10.27054 -10.26785 -10.26783
  Beta  occ. eigenvalues --  -10.26439 -10.26429  -0.93169  -0.92600  -0.83274
  Beta  occ. eigenvalues --   -0.83152  -0.82835  -0.82688  -0.70430  -0.70192
  Beta  occ. eigenvalues --   -0.67004  -0.66935  -0.58742  -0.58597  -0.56388
  Beta  occ. eigenvalues --   -0.55688  -0.52611  -0.51768  -0.49943  -0.49898
  Beta  occ. eigenvalues --   -0.48861  -0.48373  -0.46301  -0.45845  -0.44183
  Beta  occ. eigenvalues --   -0.44025  -0.40244  -0.39969  -0.38694  -0.38325
  Beta  occ. eigenvalues --   -0.38207  -0.38005  -0.28819  -0.26592
  Beta virt. eigenvalues --    0.04723   0.06125   0.13317   0.14717   0.16462
  Beta virt. eigenvalues --    0.16880   0.17287   0.18105   0.18457   0.19052
  Beta virt. eigenvalues --    0.19519   0.19543   0.20102   0.21219   0.22982

 Mulliken charges and spin densities:
               1          2
     1  C   -0.203736   0.000001
     2  C   -0.199682  -0.000000
     3  H    0.148334  -0.000000
     4  H    0.171449  -0.000000
     5  C   -0.190483   0.000000
     6  C   -0.196268   0.000000
     7  H    0.166974  -0.000000
     8  H    0.170451   0.000000
     9  C   -0.217585   0.000001
    10  H    0.131008  -0.000000
    11  H    0.142908  -0.000000
    12  C   -0.162695   0.000000
    13  H    0.151918   0.000000
    14  C   -0.201820  -0.000001
    15  H    0.148288   0.000000
    16  C   -0.194891  -0.000000
    17  H    0.119248  -0.000000
    18  H    0.133084   0.000000
    19  C   -0.190564  -0.000000
    20  H    0.168328   0.000000
    21  C   -0.159924  -0.000000
    22  H    0.151602  -0.000000
    23  C   -0.218033  -0.000001
    24  H    0.143441   0.000000
    25  H    0.131123   0.000000
    26  C   -0.193955   0.000000
    27  H    0.133140  -0.000000
    28  H    0.118340   0.000000
 Sum of Mulliken charges =  -0.00000  -0.00000

 Dipole moment (field-independent basis, Debye):
    X=              0.0027    Y=             -0.0049    Z=             -0.0046  Tot=              0.0072
 Quadrupole moment (field-independent basis, Debye-Ang):
   XX=            -70.2905   YY=            -68.1370   ZZ=            -75.2944
   XY=             -3.3572   XZ=             -3.7620   YZ=             -1.7278

 Normal termination of Gaussian 16 at Tue Aug  4 01:59:50 2020.
