 Gaussian 16, Revision B.01,

 ----------------------------------------------------------------------
 #p uwb97xd guess=mix def2tzvp # scrf=(iefpcm,solvent=Cyclohexane,read)
  nosym 6d 10f
 ----------------------------------------------------------------------

 -----------------------
 endo-2 xp-pcm for eta=3
 -----------------------
 Symbolic Z-matrix:
 Charge =  0 Multiplicity = 1

 SCF Done:  E(UwB97XD) =  -466.828044135     A.U. after   15 cycles
 Normal termination of Gaussian 16 at Tue Aug  4 20:28:45 2020.

 ----------------------------------------------------------------------
 #p uwb97xd guess=mix def2tzvp # scrf=(iefpcm,solvent=Cyclohexane,read)
  nosym 6d 10f
 ----------------------------------------------------------------------

 -----------------------
 endo-2 xp-pcm for eta=3
 -----------------------
 Symbolic Z-matrix:
 Charge =  0 Multiplicity = 1

 SCF Done:  E(UwB97XD) =  -466.824724143     A.U. after   15 cycles
 Normal termination of Gaussian 16 at Tue Aug  4 20:33:38 2020.

 ----------------------------------------------------------------------
 #p uwb97xd guess=mix def2tzvp # scrf=(iefpcm,solvent=Cyclohexane,read)
  nosym 6d 10f
 ----------------------------------------------------------------------

 -----------------------
 endo-2 xp-pcm for eta=3
 -----------------------
 Symbolic Z-matrix:
 Charge =  0 Multiplicity = 1

 SCF Done:  E(UwB97XD) =  -466.820060817     A.U. after   15 cycles
 Normal termination of Gaussian 16 at Tue Aug  4 20:38:29 2020.

 ----------------------------------------------------------------------
 #p uwb97xd guess=mix def2tzvp # scrf=(iefpcm,solvent=Cyclohexane,read)
  nosym 6d 10f
 ----------------------------------------------------------------------

 -----------------------
 endo-2 xp-pcm for eta=3
 -----------------------
 Symbolic Z-matrix:
 Charge =  0 Multiplicity = 1

 SCF Done:  E(UwB97XD) =  -466.813422379     A.U. after   15 cycles
 Normal termination of Gaussian 16 at Tue Aug  4 20:43:20 2020.

 ----------------------------------------------------------------------
 #p uwb97xd guess=mix def2tzvp # scrf=(iefpcm,solvent=Cyclohexane,read)
  nosym 6d 10f
 ----------------------------------------------------------------------

 -----------------------
 endo-2 xp-pcm for eta=3
 -----------------------
 Symbolic Z-matrix:
 Charge =  0 Multiplicity = 1

 SCF Done:  E(UwB97XD) =  -466.803892078     A.U. after   15 cycles
 Normal termination of Gaussian 16 at Tue Aug  4 20:48:13 2020.

 ----------------------------------------------------------------------
 #p uwb97xd guess=mix def2tzvp # scrf=(iefpcm,solvent=Cyclohexane,read)
  nosym 6d 10f
 ----------------------------------------------------------------------

 -----------------------
 endo-2 xp-pcm for eta=3
 -----------------------
 Symbolic Z-matrix:
 Charge =  0 Multiplicity = 1

 SCF Done:  E(UwB97XD) =  -466.797411498     A.U. after   14 cycles
 Normal termination of Gaussian 16 at Tue Aug  4 20:52:50 2020.
 Gaussian 16:  ES64L-G16RevB.01 20-Dec-2017

                          Input orientation:
 ---------------------------------------------------------------------
 Center     Atomic      Atomic             Coordinates (Angstroms)
 Number     Number       Type             X           Y           Z
 ---------------------------------------------------------------------
      1          6           0       -3.130926   -0.423925    0.230614
      2          6           0       -0.402668   -0.125188   -0.661714
      3          1           0       -4.121721   -0.544101    0.651020
      4          1           0        0.324925   -0.126026   -1.477873
      5          6           0        1.104701    1.443859    0.614659
      6          6           0        0.402668    0.125188    0.661714
      7          1           0        0.570306    2.342088    0.897018
      8          1           0       -0.324925    0.126026    1.477873
      9          6           0        1.426074   -0.983719    0.936566
     10          1           0        1.827679   -0.830304    1.941515
     11          1           0        0.940037   -1.960429    0.934664
     12          6           0        2.402045    1.533898    0.142597
     13          1           0        2.860563    2.512891    0.054740
     14          6           0        3.130926    0.423925   -0.230614
     15          1           0        4.121721    0.544101   -0.651020
     16          6           0        2.584558   -0.957939   -0.060346
     17          1           0        2.258123   -1.348285   -1.033742
     18          1           0        3.376997   -1.634728    0.270453
     19          6           0       -1.104701   -1.443859   -0.614659
     20          1           0       -0.570306   -2.342088   -0.897018
     21          6           0       -2.402045   -1.533898   -0.142597
     22          1           0       -2.860563   -2.512891   -0.054740
     23          6           0       -1.426074    0.983719   -0.936566
     24          1           0       -0.940037    1.960429   -0.934664
     25          1           0       -1.827679    0.830304   -1.941515
     26          6           0       -2.584558    0.957939    0.060346
     27          1           0       -3.376997    1.634728   -0.270453
     28          1           0       -2.258122    1.348285    1.033742
 ---------------------------------------------------------------------

 SCF Done:  E(UwB97XD) =  -466.787949210     A.U. after   14 cycles

 Alpha  occ. eigenvalues --  -10.27877 -10.27753 -10.27626 -10.27376 -10.27186
 Alpha  occ. eigenvalues --  -10.27138 -10.26984 -10.26900 -10.26669 -10.26653
 Alpha  occ. eigenvalues --  -10.26556 -10.26536  -0.94603  -0.91667  -0.85071
 Alpha  occ. eigenvalues --   -0.83597  -0.82529  -0.79902  -0.70524  -0.69725
 Alpha  occ. eigenvalues --   -0.68144  -0.66521  -0.59176  -0.58330  -0.57715
 Alpha  occ. eigenvalues --   -0.55188  -0.52596  -0.51591  -0.49980  -0.47980
 Alpha  occ. eigenvalues --   -0.47971  -0.47590  -0.47241  -0.46329  -0.44793
 Alpha  occ. eigenvalues --   -0.43668  -0.40333  -0.39835  -0.38943  -0.37812
 Alpha  occ. eigenvalues --   -0.36675  -0.36397  -0.33717  -0.24271
 Alpha virt. eigenvalues --    0.01376   0.12020   0.13551   0.15270   0.15535
 Alpha virt. eigenvalues --    0.16707   0.17763   0.18428   0.19200   0.19408
 Alpha virt. eigenvalues --    0.19982   0.20322   0.21511   0.23069   0.23114

  Beta  occ. eigenvalues --  -10.27877 -10.27753 -10.27626 -10.27378 -10.27186
  Beta  occ. eigenvalues --  -10.27138 -10.26984 -10.26900 -10.26669 -10.26651
  Beta  occ. eigenvalues --  -10.26553 -10.26539  -0.94603  -0.91667  -0.85071
  Beta  occ. eigenvalues --   -0.83597  -0.82529  -0.79902  -0.70525  -0.69725
  Beta  occ. eigenvalues --   -0.68143  -0.66521  -0.59177  -0.58330  -0.57715
  Beta  occ. eigenvalues --   -0.55188  -0.52596  -0.51591  -0.49980  -0.47980
  Beta  occ. eigenvalues --   -0.47972  -0.47589  -0.47241  -0.46329  -0.44793
  Beta  occ. eigenvalues --   -0.43667  -0.40334  -0.39834  -0.38943  -0.37812
  Beta  occ. eigenvalues --   -0.36675  -0.36396  -0.33717  -0.24272
  Beta virt. eigenvalues --    0.01376   0.12021   0.13551   0.15269   0.15533
  Beta virt. eigenvalues --    0.16707   0.17764   0.18427   0.19199   0.19408
  Beta virt. eigenvalues --    0.19983   0.20320   0.21512   0.23070   0.23113

 Mulliken charges and spin densities:
               1          2
     1  C   -0.192359  -0.600599
     2  C   -0.145641   0.051263
     3  H    0.150141   0.024655
     4  H    0.153681  -0.008730
     5  C   -0.221582   0.613264
     6  C   -0.143596  -0.051210
     7  H    0.172142  -0.024934
     8  H    0.153021   0.008717
     9  C   -0.260749   0.009626
    10  H    0.134945  -0.000076
    11  H    0.150236  -0.000042
    12  C   -0.156050  -0.223644
    13  H    0.147283   0.008979
    14  C   -0.192670   0.600668
    15  H    0.150219  -0.024656
    16  C   -0.193981  -0.035787
    17  H    0.125533   0.033865
    18  H    0.135558   0.014174
    19  C   -0.219911  -0.613386
    20  H    0.172332   0.024936
    21  C   -0.157075   0.223675
    22  H    0.147151  -0.008983
    23  C   -0.258757  -0.009657
    24  H    0.150239   0.000046
    25  H    0.134028   0.000076
    26  C   -0.195090   0.035803
    27  H    0.135628  -0.014170
    28  H    0.125326  -0.033875
 Sum of Mulliken charges =  -0.00000   0.00000

 Dipole moment (field-independent basis, Debye):
    X=             -0.0015    Y=             -0.0013    Z=             -0.0007  Tot=              0.0021
 Quadrupole moment (field-independent basis, Debye-Ang):
   XX=            -69.6739   YY=            -69.5512   ZZ=            -74.9759
   XY=             -2.3415   XZ=             -2.5346   YZ=              0.2342

 Normal termination of Gaussian 16 at Tue Aug  4 20:57:24 2020.
