 Gaussian 16, Revision B.01,
 Gaussian 16:  ES64L-G16RevB.01 20-Dec-2017

 ----------------------------------------------------------------------
 #p uwb97xd guess=mix def2tzvp # scrf=(iefpcm,solvent=Cyclohexane,read)
  nosym 6d 10f
 ----------------------------------------------------------------------

 -----------------------
 endo-2 xp-pcm for eta=3
 -----------------------
 Symbolic Z-matrix:
 Charge =  0 Multiplicity = 1

                          Input orientation:
 ---------------------------------------------------------------------
 Center     Atomic      Atomic             Coordinates (Angstroms)
 Number     Number       Type             X           Y           Z
 ---------------------------------------------------------------------
      1          6           0       -3.111354   -0.438024    0.288476
      2          6           0       -0.838887   -0.280035   -1.396455
      3          1           0       -4.018848   -0.512178    0.876391
      4          1           0        0.074286   -0.210856   -1.975395
      5          6           0        1.243587    1.445746    0.898709
      6          6           0        0.838887    0.280035    1.396455
      7          1           0        0.661682    2.345979    1.057759
      8          1           0       -0.074286    0.210856    1.975395
      9          6           0        1.663200   -0.964107    1.227344
     10          1           0        2.298573   -1.072496    2.116318
     11          1           0        1.015835   -1.842319    1.205078
     12          6           0        2.490124    1.536957    0.136281
     13          1           0        2.892627    2.517404   -0.088621
     14          6           0        3.111354    0.438024   -0.288476
     15          1           0        4.018848    0.512178   -0.876391
     16          6           0        2.534434   -0.926987   -0.030159
     17          1           0        1.936253   -1.217234   -0.902586
     18          1           0        3.331183   -1.668816    0.048441
     19          6           0       -1.243587   -1.445746   -0.898709
     20          1           0       -0.661682   -2.345979   -1.057759
     21          6           0       -2.490124   -1.536957   -0.136281
     22          1           0       -2.892627   -2.517404    0.088621
     23          6           0       -1.663200    0.964107   -1.227344
     24          1           0       -1.015835    1.842319   -1.205078
     25          1           0       -2.298573    1.072496   -2.116318
     26          6           0       -2.534434    0.926987    0.030159
     27          1           0       -3.331183    1.668816   -0.048441
     28          1           0       -1.936253    1.217234    0.902586
 ---------------------------------------------------------------------

 SCF Done:  E(UwB97XD) =  -466.860292367     A.U. after   17 cycles

 Alpha  occ. eigenvalues --  -10.28428 -10.28427 -10.28335 -10.28334 -10.28315
 Alpha  occ. eigenvalues --  -10.28314 -10.28245 -10.28244 -10.28023 -10.28022
 Alpha  occ. eigenvalues --  -10.27765 -10.27763  -0.94153  -0.93806  -0.84130
 Alpha  occ. eigenvalues --   -0.84112  -0.83963  -0.83765  -0.71283  -0.71271
 Alpha  occ. eigenvalues --   -0.67973  -0.67949  -0.59786  -0.59652  -0.57499
 Alpha  occ. eigenvalues --   -0.56998  -0.53396  -0.52718  -0.50943  -0.50884
 Alpha  occ. eigenvalues --   -0.50025  -0.49612  -0.47327  -0.47073  -0.45199
 Alpha  occ. eigenvalues --   -0.44994  -0.41244  -0.41112  -0.39658  -0.39300
 Alpha  occ. eigenvalues --   -0.39261  -0.39152  -0.29806  -0.27974
 Alpha virt. eigenvalues --    0.03886   0.04485   0.10528   0.12219   0.13276
 Alpha virt. eigenvalues --    0.14266   0.14556   0.15484   0.15577   0.15932
 Alpha virt. eigenvalues --    0.16877   0.16906   0.17117   0.18221   0.19878

  Beta  occ. eigenvalues --  -10.28428 -10.28427 -10.28335 -10.28334 -10.28315
  Beta  occ. eigenvalues --  -10.28314 -10.28245 -10.28244 -10.28023 -10.28022
  Beta  occ. eigenvalues --  -10.27765 -10.27763  -0.94153  -0.93806  -0.84130
  Beta  occ. eigenvalues --   -0.84112  -0.83963  -0.83765  -0.71283  -0.71271
  Beta  occ. eigenvalues --   -0.67973  -0.67949  -0.59786  -0.59652  -0.57499
  Beta  occ. eigenvalues --   -0.56998  -0.53396  -0.52718  -0.50943  -0.50884
  Beta  occ. eigenvalues --   -0.50025  -0.49612  -0.47327  -0.47073  -0.45199
  Beta  occ. eigenvalues --   -0.44994  -0.41244  -0.41112  -0.39658  -0.39300
  Beta  occ. eigenvalues --   -0.39261  -0.39152  -0.29806  -0.27974
  Beta virt. eigenvalues --    0.03886   0.04485   0.10528   0.12219   0.13276
  Beta virt. eigenvalues --    0.14266   0.14556   0.15484   0.15577   0.15932
  Beta virt. eigenvalues --    0.16877   0.16906   0.17117   0.18221   0.19878

 Mulliken charges and spin densities:
               1          2
     1  C   -0.209754  -0.000000
     2  C   -0.185774  -0.000000
     3  H    0.142467   0.000000
     4  H    0.155781   0.000000
     5  C   -0.165606  -0.000000
     6  C   -0.185692  -0.000000
     7  H    0.150341   0.000000
     8  H    0.155753  -0.000000
     9  C   -0.178379  -0.000001
    10  H    0.117098   0.000000
    11  H    0.129157   0.000000
    12  C   -0.158208  -0.000000
    13  H    0.145679  -0.000000
    14  C   -0.209613   0.000001
    15  H    0.142446  -0.000000
    16  C   -0.174642   0.000000
    17  H    0.107142   0.000000
    18  H    0.124531  -0.000000
    19  C   -0.165487   0.000001
    20  H    0.150260  -0.000000
    21  C   -0.158061  -0.000000
    22  H    0.145661   0.000000
    23  C   -0.178387   0.000001
    24  H    0.129124  -0.000000
    25  H    0.117111  -0.000000
    26  C   -0.174572  -0.000000
    27  H    0.124544   0.000000
    28  H    0.107082   0.000000
 Sum of Mulliken charges =  -0.00000   0.00000

 Dipole moment (field-independent basis, Debye):
    X=             -0.0005    Y=              0.0007    Z=              0.0002  Tot=              0.0009
 Quadrupole moment (field-independent basis, Debye-Ang):
   XX=            -72.9395   YY=            -69.7231   ZZ=            -76.3171
   XY=             -3.1723   XZ=             -4.1097   YZ=             -1.6700

 Normal termination of Gaussian 16 at Mon Aug  3 13:52:09 2020.
