 Gaussian 16, Revision B.01,
 Gaussian 16:  ES64L-G16RevB.01 20-Dec-2017

 ----------------------------------------------------------------------
 #p uwb97xd guess=mix def2tzvp # scrf=(iefpcm,solvent=Cyclohexane,read)
  nosym 6d 10f
 ----------------------------------------------------------------------

 -----------------------
 endo-2 xp-pcm for eta=3
 -----------------------
 Symbolic Z-matrix:
 Charge =  0 Multiplicity = 1

                          Input orientation:
 ---------------------------------------------------------------------
 Center     Atomic      Atomic             Coordinates (Angstroms)
 Number     Number       Type             X           Y           Z
 ---------------------------------------------------------------------
      1          6           0       -3.118578   -0.436876    0.247024
      2          6           0       -0.555477   -0.196368   -0.932206
      3          1           0       -4.082851   -0.549917    0.728725
      4          1           0        0.380936   -0.117306   -1.466881
      5          6           0        1.090379    1.404463    0.689379
      6          6           0        0.555477    0.196368    0.932206
      7          1           0        0.521599    2.308823    0.864348
      8          1           0       -0.380936    0.117306    1.466881
      9          6           0        1.466810   -0.999509    0.989932
     10          1           0        1.911942   -0.970218    1.991724
     11          1           0        0.912395   -1.934620    0.924846
     12          6           0        2.418004    1.516122    0.112667
     13          1           0        2.827281    2.505496   -0.054615
     14          6           0        3.118578    0.436876   -0.247024
     15          1           0        4.082851    0.549917   -0.728725
     16          6           0        2.591691   -0.957992   -0.044788
     17          1           0        2.252888   -1.355863   -1.009385
     18          1           0        3.400558   -1.620027    0.271880
     19          6           0       -1.090379   -1.404463   -0.689379
     20          1           0       -0.521599   -2.308823   -0.864348
     21          6           0       -2.418004   -1.516122   -0.112667
     22          1           0       -2.827281   -2.505496    0.054615
     23          6           0       -1.466810    0.999509   -0.989932
     24          1           0       -0.912395    1.934620   -0.924846
     25          1           0       -1.911942    0.970219   -1.991724
     26          6           0       -2.591691    0.957992    0.044788
     27          1           0       -3.400558    1.620027   -0.271880
     28          1           0       -2.252888    1.355863    1.009385
 ---------------------------------------------------------------------

 SCF Done:  E(UwB97XD) =  -466.827809514     A.U. after   19 cycles

 Alpha  occ. eigenvalues --  -10.28746 -10.28745 -10.28611 -10.28610 -10.28268
 Alpha  occ. eigenvalues --  -10.28268 -10.28210 -10.28210 -10.28011 -10.28011
 Alpha  occ. eigenvalues --  -10.27216 -10.27215  -0.95002  -0.93482  -0.85119
 Alpha  occ. eigenvalues --   -0.84441  -0.83667  -0.83249  -0.71677  -0.70810
 Alpha  occ. eigenvalues --   -0.68830  -0.67831  -0.60125  -0.59895  -0.58000
 Alpha  occ. eigenvalues --   -0.56367  -0.53471  -0.53199  -0.51141  -0.50688
 Alpha  occ. eigenvalues --   -0.49861  -0.48855  -0.47786  -0.47135  -0.46295
 Alpha  occ. eigenvalues --   -0.44778  -0.41599  -0.41064  -0.39938  -0.39377
 Alpha  occ. eigenvalues --   -0.39121  -0.38229  -0.31082  -0.25083
 Alpha virt. eigenvalues --    0.00786   0.07496   0.10449   0.12422   0.13369
 Alpha virt. eigenvalues --    0.14496   0.14659   0.15531   0.15886   0.16334
 Alpha virt. eigenvalues --    0.16423   0.17377   0.17794   0.18794   0.19921

  Beta  occ. eigenvalues --  -10.28746 -10.28745 -10.28611 -10.28610 -10.28268
  Beta  occ. eigenvalues --  -10.28268 -10.28210 -10.28210 -10.28011 -10.28011
  Beta  occ. eigenvalues --  -10.27216 -10.27215  -0.95002  -0.93482  -0.85119
  Beta  occ. eigenvalues --   -0.84441  -0.83667  -0.83249  -0.71677  -0.70810
  Beta  occ. eigenvalues --   -0.68830  -0.67831  -0.60125  -0.59895  -0.58000
  Beta  occ. eigenvalues --   -0.56367  -0.53471  -0.53199  -0.51141  -0.50688
  Beta  occ. eigenvalues --   -0.49861  -0.48855  -0.47786  -0.47135  -0.46295
  Beta  occ. eigenvalues --   -0.44778  -0.41599  -0.41064  -0.39938  -0.39377
  Beta  occ. eigenvalues --   -0.39121  -0.38229  -0.31082  -0.25083
  Beta virt. eigenvalues --    0.00786   0.07496   0.10449   0.12422   0.13369
  Beta virt. eigenvalues --    0.14496   0.14659   0.15531   0.15886   0.16334
  Beta virt. eigenvalues --    0.16423   0.17377   0.17794   0.18794   0.19921

 Mulliken charges and spin densities:
               1          2
     1  C   -0.210090  -0.000003
     2  C   -0.200847   0.000001
     3  H    0.141915   0.000000
     4  H    0.172250   0.000000
     5  C   -0.142677   0.000003
     6  C   -0.200915  -0.000001
     7  H    0.151869  -0.000000
     8  H    0.172235  -0.000000
     9  C   -0.203737  -0.000002
    10  H    0.121032   0.000001
    11  H    0.142794   0.000000
    12  C   -0.178715  -0.000002
    13  H    0.144600  -0.000000
    14  C   -0.210170   0.000003
    15  H    0.141917  -0.000000
    16  C   -0.182558   0.000000
    17  H    0.116715   0.000000
    18  H    0.127596  -0.000000
    19  C   -0.142837  -0.000003
    20  H    0.151953   0.000000
    21  C   -0.178821   0.000002
    22  H    0.144628   0.000000
    23  C   -0.203717   0.000002
    24  H    0.142796  -0.000000
    25  H    0.121044  -0.000001
    26  C   -0.182586  -0.000000
    27  H    0.127601   0.000000
    28  H    0.116727  -0.000000
 Sum of Mulliken charges =  -0.00000   0.00000

 Dipole moment (field-independent basis, Debye):
    X=             -0.0001    Y=             -0.0006    Z=             -0.0000  Tot=              0.0006
 Quadrupole moment (field-independent basis, Debye-Ang):
   XX=            -72.4908   YY=            -70.0899   ZZ=            -76.9783
   XY=             -3.2404   XZ=             -3.1738   YZ=             -1.2247

 Normal termination of Gaussian 16 at Mon Aug  3 16:00:24 2020.
