 Gaussian 16, Revision B.01,
 Gaussian 16:  ES64L-G16RevB.01 20-Dec-2017

 ----------------------------------------------------------------------
 #p uwb97xd guess=mix def2tzvp # scrf=(iefpcm,solvent=Cyclohexane,read)
  nosym 6d 10f
 ----------------------------------------------------------------------

 -----------------------
 endo-2 xp-pcm for eta=3
 -----------------------
 Symbolic Z-matrix:
 Charge =  0 Multiplicity = 1

                          Input orientation:
 ---------------------------------------------------------------------
 Center     Atomic      Atomic             Coordinates (Angstroms)
 Number     Number       Type             X           Y           Z
 ---------------------------------------------------------------------
      1          6           0       -3.120165   -0.439520    0.280190
      2          6           0       -0.807998   -0.270483   -1.349166
      3          1           0       -4.039260   -0.519446    0.849052
      4          1           0        0.117969   -0.196755   -1.906627
      5          6           0        1.221266    1.438778    0.865571
      6          6           0        0.807998    0.270483    1.349166
      7          1           0        0.634256    2.337167    1.015854
      8          1           0       -0.117969    0.196755    1.906627
      9          6           0        1.635901   -0.972988    1.195334
     10          1           0        2.239675   -1.089626    2.104856
     11          1           0        0.987632   -1.849296    1.145396
     12          6           0        2.482134    1.535015    0.127997
     13          1           0        2.882920    2.517315   -0.091872
     14          6           0        3.120165    0.439520   -0.280190
     15          1           0        4.039260    0.519446   -0.849052
     16          6           0        2.551272   -0.930669   -0.031151
     17          1           0        1.991682   -1.236938   -0.923478
     18          1           0        3.354963   -1.660578    0.081874
     19          6           0       -1.221266   -1.438778   -0.865571
     20          1           0       -0.634256   -2.337167   -1.015854
     21          6           0       -2.482134   -1.535015   -0.127997
     22          1           0       -2.882920   -2.517315    0.091872
     23          6           0       -1.635901    0.972988   -1.195334
     24          1           0       -0.987632    1.849296   -1.145396
     25          1           0       -2.239675    1.089626   -2.104856
     26          6           0       -2.551272    0.930669    0.031151
     27          1           0       -3.354963    1.660578   -0.081874
     28          1           0       -1.991682    1.236938    0.923479
 ---------------------------------------------------------------------

 SCF Done:  E(UwB97XD) =  -466.859824721     A.U. after   18 cycles

 Alpha  occ. eigenvalues --  -10.28467 -10.28466 -10.28334 -10.28333 -10.28314
 Alpha  occ. eigenvalues --  -10.28313 -10.28234 -10.28233 -10.28024 -10.28023
 Alpha  occ. eigenvalues --  -10.27721 -10.27720  -0.94165  -0.93761  -0.84179
 Alpha  occ. eigenvalues --   -0.84135  -0.83950  -0.83763  -0.71334  -0.71280
 Alpha  occ. eigenvalues --   -0.67976  -0.67972  -0.59788  -0.59650  -0.57469
 Alpha  occ. eigenvalues --   -0.56918  -0.53482  -0.52755  -0.50973  -0.50913
 Alpha  occ. eigenvalues --   -0.50004  -0.49571  -0.47346  -0.47036  -0.45173
 Alpha  occ. eigenvalues --   -0.45070  -0.41271  -0.41097  -0.39698  -0.39304
 Alpha  occ. eigenvalues --   -0.39294  -0.39119  -0.29818  -0.27884
 Alpha virt. eigenvalues --    0.03778   0.04598   0.10518   0.12217   0.13299
 Alpha virt. eigenvalues --    0.14316   0.14660   0.15513   0.15621   0.15882
 Alpha virt. eigenvalues --    0.16855   0.16888   0.17122   0.18209   0.19902

  Beta  occ. eigenvalues --  -10.28467 -10.28466 -10.28334 -10.28333 -10.28314
  Beta  occ. eigenvalues --  -10.28313 -10.28234 -10.28233 -10.28024 -10.28023
  Beta  occ. eigenvalues --  -10.27721 -10.27720  -0.94165  -0.93761  -0.84179
  Beta  occ. eigenvalues --   -0.84135  -0.83950  -0.83763  -0.71334  -0.71280
  Beta  occ. eigenvalues --   -0.67976  -0.67972  -0.59788  -0.59650  -0.57469
  Beta  occ. eigenvalues --   -0.56918  -0.53482  -0.52755  -0.50973  -0.50913
  Beta  occ. eigenvalues --   -0.50004  -0.49571  -0.47346  -0.47036  -0.45173
  Beta  occ. eigenvalues --   -0.45070  -0.41271  -0.41097  -0.39698  -0.39304
  Beta  occ. eigenvalues --   -0.39294  -0.39119  -0.29818  -0.27884
  Beta virt. eigenvalues --    0.03778   0.04598   0.10518   0.12217   0.13299
  Beta virt. eigenvalues --    0.14316   0.14660   0.15513   0.15621   0.15882
  Beta virt. eigenvalues --    0.16855   0.16888   0.17122   0.18209   0.19902

 Mulliken charges and spin densities:
               1          2
     1  C   -0.210255  -0.000000
     2  C   -0.182710   0.000000
     3  H    0.142326   0.000000
     4  H    0.156719  -0.000000
     5  C   -0.167322   0.000000
     6  C   -0.182815  -0.000000
     7  H    0.151158   0.000000
     8  H    0.156800   0.000000
     9  C   -0.186196  -0.000000
    10  H    0.117638   0.000000
    11  H    0.131378   0.000000
    12  C   -0.156762  -0.000000
    13  H    0.145669  -0.000000
    14  C   -0.210226   0.000000
    15  H    0.142321  -0.000000
    16  C   -0.175289   0.000000
    17  H    0.108753  -0.000000
    18  H    0.124895  -0.000000
    19  C   -0.167375   0.000000
    20  H    0.151179  -0.000000
    21  C   -0.156767  -0.000000
    22  H    0.145677   0.000000
    23  C   -0.186115   0.000000
    24  H    0.131296  -0.000000
    25  H    0.117650  -0.000000
    26  C   -0.175233  -0.000000
    27  H    0.124909   0.000000
    28  H    0.108697   0.000000
 Sum of Mulliken charges =  -0.00000  -0.00000

 Dipole moment (field-independent basis, Debye):
    X=             -0.0001    Y=             -0.0004    Z=             -0.0000  Tot=              0.0004
 Quadrupole moment (field-independent basis, Debye-Ang):
   XX=            -72.7415   YY=            -69.7571   ZZ=            -76.5114
   XY=             -3.2231   XZ=             -4.0048   YZ=             -1.7035

 Normal termination of Gaussian 16 at Mon Aug  3 14:07:34 2020.
