 Gaussian 16, Revision B.01,

 ----------------------------------------------------------------------
 #p uwb97xd guess=mix def2tzvp # scrf=(iefpcm,solvent=Cyclohexane,read)
  nosym 6d 10f
 ----------------------------------------------------------------------

 -----------------------
 endo-2 xp-pcm for eta=3
 -----------------------
 Symbolic Z-matrix:
 Charge =  0 Multiplicity = 1

 SCF Done:  E(UwB97XD) =  -466.805575125     A.U. after   17 cycles
 Normal termination of Gaussian 16 at Tue Aug  4 14:35:37 2020.

 ----------------------------------------------------------------------
 #p uwb97xd guess=mix def2tzvp # scrf=(iefpcm,solvent=Cyclohexane,read)
  nosym 6d 10f
 ----------------------------------------------------------------------

 -----------------------
 endo-2 xp-pcm for eta=3
 -----------------------
 Symbolic Z-matrix:
 Charge =  0 Multiplicity = 1

 SCF Done:  E(UwB97XD) =  -466.802867609     A.U. after   17 cycles
 Normal termination of Gaussian 16 at Tue Aug  4 14:41:10 2020.

 ----------------------------------------------------------------------
 #p uwb97xd guess=mix def2tzvp # scrf=(iefpcm,solvent=Cyclohexane,read)
  nosym 6d 10f
 ----------------------------------------------------------------------

 -----------------------
 endo-2 xp-pcm for eta=3
 -----------------------
 Symbolic Z-matrix:
 Charge =  0 Multiplicity = 1

 SCF Done:  E(UwB97XD) =  -466.798853868     A.U. after   17 cycles
 Normal termination of Gaussian 16 at Tue Aug  4 14:46:39 2020.

 ----------------------------------------------------------------------
 #p uwb97xd guess=mix def2tzvp # scrf=(iefpcm,solvent=Cyclohexane,read)
  nosym 6d 10f
 ----------------------------------------------------------------------

 -----------------------
 endo-2 xp-pcm for eta=3
 -----------------------
 Symbolic Z-matrix:
 Charge =  0 Multiplicity = 1

 SCF Done:  E(UwB97XD) =  -466.789930939     A.U. after   16 cycles
 Normal termination of Gaussian 16 at Tue Aug  4 14:51:48 2020.

 ----------------------------------------------------------------------
 #p uwb97xd guess=mix def2tzvp # scrf=(iefpcm,solvent=Cyclohexane,read)
  nosym 6d 10f
 ----------------------------------------------------------------------

 -----------------------
 endo-2 xp-pcm for eta=3
 -----------------------
 Symbolic Z-matrix:
 Charge =  0 Multiplicity = 1

 SCF Done:  E(UwB97XD) =  -466.781849884     A.U. after   16 cycles
 Normal termination of Gaussian 16 at Tue Aug  4 14:57:06 2020.

 ----------------------------------------------------------------------
 #p uwb97xd guess=mix def2tzvp # scrf=(iefpcm,solvent=Cyclohexane,read)
  nosym 6d 10f
 ----------------------------------------------------------------------

 -----------------------
 endo-2 xp-pcm for eta=3
 -----------------------
 Symbolic Z-matrix:
 Charge =  0 Multiplicity = 1

 SCF Done:  E(UwB97XD) =  -466.775321580     A.U. after   16 cycles
 Normal termination of Gaussian 16 at Tue Aug  4 15:02:26 2020.
 Gaussian 16:  ES64L-G16RevB.01 20-Dec-2017

                          Input orientation:
 ---------------------------------------------------------------------
 Center     Atomic      Atomic             Coordinates (Angstroms)
 Number     Number       Type             X           Y           Z
 ---------------------------------------------------------------------
      1          6           0       -3.118984   -0.431661    0.247435
      2          6           0       -0.498940   -0.160927   -0.842197
      3          1           0       -4.083986   -0.548798    0.725945
      4          1           0        0.353927   -0.115768   -1.511796
      5          6           0        1.104795    1.419144    0.680915
      6          6           0        0.498940    0.160927    0.842197
      7          1           0        0.544367    2.322264    0.886379
      8          1           0       -0.353927    0.115768    1.511797
      9          6           0        1.462637   -0.999808    0.987512
     10          1           0        1.898804   -0.937531    1.990366
     11          1           0        0.929588   -1.949702    0.936130
     12          6           0        2.406337    1.522553    0.118110
     13          1           0        2.824446    2.509213   -0.045570
     14          6           0        3.118984    0.431661   -0.247435
     15          1           0        4.083986    0.548798   -0.725945
     16          6           0        2.592283   -0.958575   -0.043388
     17          1           0        2.248595   -1.357032   -1.006499
     18          1           0        3.401257   -1.622519    0.271019
     19          6           0       -1.104795   -1.419144   -0.680915
     20          1           0       -0.544367   -2.322264   -0.886379
     21          6           0       -2.406337   -1.522553   -0.118110
     22          1           0       -2.824445   -2.509213    0.045570
     23          6           0       -1.462637    0.999808   -0.987512
     24          1           0       -0.929588    1.949702   -0.936130
     25          1           0       -1.898804    0.937531   -1.990366
     26          6           0       -2.592283    0.958575    0.043388
     27          1           0       -3.401256    1.622519   -0.271019
     28          1           0       -2.248595    1.357032    1.006498
 ---------------------------------------------------------------------

 SCF Done:  E(UwB97XD) =  -466.767753621     A.U. after   16 cycles

 Alpha  occ. eigenvalues --  -10.28719 -10.28360 -10.27368 -10.27292 -10.27257
 Alpha  occ. eigenvalues --  -10.26987 -10.26955 -10.26904 -10.26877 -10.26874
 Alpha  occ. eigenvalues --  -10.26676 -10.26391  -0.93904  -0.92120  -0.84051
 Alpha  occ. eigenvalues --   -0.83417  -0.82597  -0.81385  -0.70261  -0.69230
 Alpha  occ. eigenvalues --   -0.68384  -0.66819  -0.58976  -0.58443  -0.57183
 Alpha  occ. eigenvalues --   -0.55317  -0.52309  -0.52048  -0.49813  -0.48967
 Alpha  occ. eigenvalues --   -0.48262  -0.47131  -0.46842  -0.46302  -0.45404
 Alpha  occ. eigenvalues --   -0.43637  -0.40396  -0.39980  -0.38798  -0.38595
 Alpha  occ. eigenvalues --   -0.38016  -0.36478  -0.31173  -0.23213
 Alpha virt. eigenvalues --    0.00802   0.10122   0.13368   0.15497   0.15823
 Alpha virt. eigenvalues --    0.16362   0.17690   0.18554   0.19080   0.19416
 Alpha virt. eigenvalues --    0.19444   0.20276   0.20959   0.21800   0.23090

  Beta  occ. eigenvalues --  -10.28717 -10.28362 -10.27368 -10.27293 -10.27256
  Beta  occ. eigenvalues --  -10.26989 -10.26955 -10.26906 -10.26876 -10.26873
  Beta  occ. eigenvalues --  -10.26677 -10.26389  -0.93904  -0.92120  -0.84051
  Beta  occ. eigenvalues --   -0.83417  -0.82597  -0.81385  -0.70261  -0.69229
  Beta  occ. eigenvalues --   -0.68384  -0.66819  -0.58976  -0.58443  -0.57183
  Beta  occ. eigenvalues --   -0.55317  -0.52310  -0.52048  -0.49814  -0.48966
  Beta  occ. eigenvalues --   -0.48262  -0.47131  -0.46842  -0.46303  -0.45404
  Beta  occ. eigenvalues --   -0.43637  -0.40396  -0.39980  -0.38798  -0.38594
  Beta  occ. eigenvalues --   -0.38015  -0.36479  -0.31173  -0.23213
  Beta virt. eigenvalues --    0.00802   0.10122   0.13368   0.15497   0.15824
  Beta virt. eigenvalues --    0.16362   0.17690   0.18554   0.19080   0.19415
  Beta virt. eigenvalues --    0.19447   0.20275   0.20960   0.21800   0.23088

 Mulliken charges and spin densities:
               1          2
     1  C   -0.201427   0.386744
     2  C   -0.198314  -0.219500
     3  H    0.149466  -0.015890
     4  H    0.173551   0.013029
     5  C   -0.174677  -0.494358
     6  C   -0.196231   0.219531
     7  H    0.164793   0.020059
     8  H    0.172797  -0.013026
     9  C   -0.243159  -0.010357
    10  H    0.133986   0.006605
    11  H    0.150783   0.002742
    12  C   -0.171717   0.187374
    13  H    0.149618  -0.007241
    14  C   -0.201222  -0.386761
    15  H    0.149505   0.015888
    16  C   -0.196937   0.025365
    17  H    0.126810  -0.021220
    18  H    0.135562  -0.009498
    19  C   -0.171893   0.494395
    20  H    0.164272  -0.020068
    21  C   -0.172438  -0.187391
    22  H    0.149517   0.007241
    23  C   -0.239815   0.010327
    24  H    0.150682  -0.002751
    25  H    0.132828  -0.006596
    26  C   -0.198710  -0.025369
    27  H    0.135626   0.009501
    28  H    0.126745   0.021227
 Sum of Mulliken charges =  -0.00000  -0.00000

 Dipole moment (field-independent basis, Debye):
    X=             -0.0007    Y=             -0.0025    Z=             -0.0058  Tot=              0.0064
 Quadrupole moment (field-independent basis, Debye-Ang):
   XX=            -70.3796   YY=            -69.0523   ZZ=            -75.0808
   XY=             -3.0022   XZ=             -3.1444   YZ=             -0.6983

 Normal termination of Gaussian 16 at Tue Aug  4 15:07:39 2020.
