 Gaussian 16, Revision B.01,
 Gaussian 16:  ES64L-G16RevB.01 20-Dec-2017

 ----------------------------------------------------------------------
 #p uwb97xd guess=mix def2tzvp # scrf=(iefpcm,solvent=Cyclohexane,read)
  nosym 6d 10f
 ----------------------------------------------------------------------

 -----------------------
 endo-2 xp-pcm for eta=3
 -----------------------
 Symbolic Z-matrix:
 Charge =  0 Multiplicity = 1

                          Input orientation:
 ---------------------------------------------------------------------
 Center     Atomic      Atomic             Coordinates (Angstroms)
 Number     Number       Type             X           Y           Z
 ---------------------------------------------------------------------
      1          6           0       -3.118670   -0.432956    0.247226
      2          6           0       -0.509469   -0.167984   -0.858002
      3          1           0       -4.083546   -0.549105    0.726486
      4          1           0        0.360157   -0.116106   -1.503444
      5          6           0        1.101339    1.415489    0.682520
      6          6           0        0.509469    0.167984    0.858002
      7          1           0        0.540414    2.319583    0.882812
      8          1           0       -0.360157    0.116106    1.503444
      9          6           0        1.463271   -0.999883    0.987744
     10          1           0        1.900513   -0.942148    1.990648
     11          1           0        0.926831   -1.947518    0.934189
     12          6           0        2.408817    1.521066    0.116868
     13          1           0        2.824758    2.508464   -0.047474
     14          6           0        3.118670    0.432956   -0.247226
     15          1           0        4.083546    0.549105   -0.726486
     16          6           0        2.592153   -0.958523   -0.043594
     17          1           0        2.249577   -1.356847   -1.007017
     18          1           0        3.401074   -1.622064    0.271288
     19          6           0       -1.101339   -1.415489   -0.682520
     20          1           0       -0.540414   -2.319583   -0.882812
     21          6           0       -2.408817   -1.521066   -0.116868
     22          1           0       -2.824758   -2.508464    0.047474
     23          6           0       -1.463271    0.999883   -0.987744
     24          1           0       -0.926831    1.947518   -0.934189
     25          1           0       -1.900513    0.942148   -1.990648
     26          6           0       -2.592153    0.958523    0.043594
     27          1           0       -3.401074    1.622064   -0.271288
     28          1           0       -2.249577    1.356847    1.007017
 ---------------------------------------------------------------------

 SCF Done:  E(UwB97XD) =  -466.815571515     A.U. after   19 cycles

 Alpha  occ. eigenvalues --  -10.29739 -10.29396 -10.28562 -10.28553 -10.28520
 Alpha  occ. eigenvalues --  -10.28208 -10.28158 -10.28132 -10.28116 -10.28018
 Alpha  occ. eigenvalues --  -10.27928 -10.27507  -0.94993  -0.93258  -0.85119
 Alpha  occ. eigenvalues --   -0.84469  -0.83666  -0.82628  -0.71389  -0.70398
 Alpha  occ. eigenvalues --   -0.69332  -0.67878  -0.60081  -0.59601  -0.58190
 Alpha  occ. eigenvalues --   -0.56378  -0.53359  -0.53179  -0.50955  -0.50190
 Alpha  occ. eigenvalues --   -0.49469  -0.48363  -0.47941  -0.47368  -0.46478
 Alpha  occ. eigenvalues --   -0.44734  -0.41483  -0.41086  -0.39907  -0.39650
 Alpha  occ. eigenvalues --   -0.39135  -0.37645  -0.31998  -0.24150
 Alpha virt. eigenvalues --   -0.00468   0.08561   0.10442   0.12477   0.13187
 Alpha virt. eigenvalues --    0.14261   0.14509   0.15473   0.15955   0.16317
 Alpha virt. eigenvalues --    0.16523   0.17185   0.18129   0.19445   0.20155

  Beta  occ. eigenvalues --  -10.29739 -10.29396 -10.28562 -10.28553 -10.28520
  Beta  occ. eigenvalues --  -10.28207 -10.28158 -10.28132 -10.28115 -10.28019
  Beta  occ. eigenvalues --  -10.27928 -10.27506  -0.94993  -0.93258  -0.85119
  Beta  occ. eigenvalues --   -0.84469  -0.83666  -0.82628  -0.71390  -0.70398
  Beta  occ. eigenvalues --   -0.69332  -0.67878  -0.60081  -0.59601  -0.58190
  Beta  occ. eigenvalues --   -0.56378  -0.53359  -0.53179  -0.50955  -0.50190
  Beta  occ. eigenvalues --   -0.49469  -0.48363  -0.47941  -0.47367  -0.46478
  Beta  occ. eigenvalues --   -0.44734  -0.41483  -0.41086  -0.39907  -0.39649
  Beta  occ. eigenvalues --   -0.39135  -0.37645  -0.31998  -0.24150
  Beta virt. eigenvalues --   -0.00467   0.08561   0.10442   0.12477   0.13187
  Beta virt. eigenvalues --    0.14261   0.14509   0.15473   0.15955   0.16317
  Beta virt. eigenvalues --    0.16523   0.17185   0.18129   0.19445   0.20155

 Mulliken charges and spin densities:
               1          2
     1  C   -0.209304   0.319958
     2  C   -0.182530  -0.221864
     3  H    0.143345  -0.013488
     4  H    0.158533   0.011985
     5  C   -0.150542  -0.423967
     6  C   -0.182552   0.221859
     7  H    0.154507   0.017704
     8  H    0.158542  -0.011985
     9  C   -0.204236  -0.010015
    10  H    0.119400   0.007106
    11  H    0.138149   0.003359
    12  C   -0.175785   0.163224
    13  H    0.144201  -0.006423
    14  C   -0.209380  -0.319958
    15  H    0.143351   0.013488
    16  C   -0.180589   0.021723
    17  H    0.117211  -0.017120
    18  H    0.127690  -0.007765
    19  C   -0.150696   0.423971
    20  H    0.154644  -0.017702
    21  C   -0.175839  -0.163226
    22  H    0.144221   0.006423
    23  C   -0.204251   0.010015
    24  H    0.138192  -0.003359
    25  H    0.119401  -0.007106
    26  C   -0.180587  -0.021723
    27  H    0.127700   0.007765
    28  H    0.117204   0.017121
 Sum of Mulliken charges =  -0.00000   0.00000

 Dipole moment (field-independent basis, Debye):
    X=              0.0002    Y=             -0.0009    Z=             -0.0001  Tot=              0.0010
 Quadrupole moment (field-independent basis, Debye-Ang):
   XX=            -72.5217   YY=            -70.5493   ZZ=            -76.6821
   XY=             -3.0388   XZ=             -3.1383   YZ=             -0.8200

 Normal termination of Gaussian 16 at Mon Aug  3 16:19:42 2020.
