 Gaussian 16, Revision B.01,
 Gaussian 16:  ES64L-G16RevB.01 20-Dec-2017

 ----------------------------------------------------------------------
 #p uwb97xd guess=mix def2tzvp # scrf=(iefpcm,solvent=Cyclohexane,read)
  nosym 6d 10f
 ----------------------------------------------------------------------

 -----------------------
 endo-2 xp-pcm for eta=3
 -----------------------
 Symbolic Z-matrix:
 Charge =  0 Multiplicity = 1

                          Input orientation:
 ---------------------------------------------------------------------
 Center     Atomic      Atomic             Coordinates (Angstroms)
 Number     Number       Type             X           Y           Z
 ---------------------------------------------------------------------
      1          6           0       -3.117905   -0.439074    0.282722
      2          6           0       -0.818524   -0.273593   -1.364901
      3          1           0       -4.033330   -0.517117    0.857717
      4          1           0        0.103373   -0.201366   -1.929344
      5          6           0        1.228903    1.441011    0.876454
      6          6           0        0.818524    0.273593    1.364901
      7          1           0        0.643410    2.339945    1.029443
      8          1           0       -0.103373    0.201366    1.929344
      9          6           0        1.645400   -0.970035    1.206150
     10          1           0        2.259726   -1.083800    2.109018
     11          1           0        0.997461   -1.847095    1.165558
     12          6           0        2.485196    1.535682    0.130802
     13          1           0        2.886502    2.517404   -0.090679
     14          6           0        3.117905    0.439074   -0.282722
     15          1           0        4.033330    0.517117   -0.857717
     16          6           0        2.546291   -0.929423   -0.030764
     17          1           0        1.973763   -1.230286   -0.916701
     18          1           0        3.347800   -1.663372    0.070740
     19          6           0       -1.228903   -1.441011   -0.876454
     20          1           0       -0.643410   -2.339945   -1.029443
     21          6           0       -2.485196   -1.535682   -0.130802
     22          1           0       -2.886502   -2.517404    0.090679
     23          6           0       -1.645400    0.970035   -1.206150
     24          1           0       -0.997461    1.847095   -1.165558
     25          1           0       -2.259726    1.083800   -2.109018
     26          6           0       -2.546291    0.929423    0.030764
     27          1           0       -3.347800    1.663372   -0.070740
     28          1           0       -1.973763    1.230286    0.916701
 ---------------------------------------------------------------------

 SCF Done:  E(UwB97XD) =  -466.860018360     A.U. after   17 cycles

 Alpha  occ. eigenvalues --  -10.28454 -10.28453 -10.28335 -10.28333 -10.28315
 Alpha  occ. eigenvalues --  -10.28313 -10.28237 -10.28236 -10.28023 -10.28022
 Alpha  occ. eigenvalues --  -10.27736 -10.27734  -0.94160  -0.93777  -0.84161
 Alpha  occ. eigenvalues --   -0.84126  -0.83955  -0.83764  -0.71312  -0.71281
 Alpha  occ. eigenvalues --   -0.67975  -0.67963  -0.59787  -0.59650  -0.57478
 Alpha  occ. eigenvalues --   -0.56946  -0.53452  -0.52742  -0.50962  -0.50903
 Alpha  occ. eigenvalues --   -0.50011  -0.49585  -0.47339  -0.47049  -0.45181
 Alpha  occ. eigenvalues --   -0.45043  -0.41261  -0.41102  -0.39684  -0.39295
 Alpha  occ. eigenvalues --   -0.39291  -0.39130  -0.29813  -0.27916
 Alpha virt. eigenvalues --    0.03817   0.04558   0.10521   0.12216   0.13291
 Alpha virt. eigenvalues --    0.14298   0.14627   0.15502   0.15606   0.15897
 Alpha virt. eigenvalues --    0.16864   0.16894   0.17119   0.18212   0.19895

  Beta  occ. eigenvalues --  -10.28454 -10.28453 -10.28335 -10.28333 -10.28315
  Beta  occ. eigenvalues --  -10.28313 -10.28237 -10.28236 -10.28023 -10.28022
  Beta  occ. eigenvalues --  -10.27736 -10.27734  -0.94160  -0.93777  -0.84161
  Beta  occ. eigenvalues --   -0.84126  -0.83955  -0.83764  -0.71312  -0.71281
  Beta  occ. eigenvalues --   -0.67975  -0.67963  -0.59787  -0.59650  -0.57478
  Beta  occ. eigenvalues --   -0.56946  -0.53452  -0.52742  -0.50962  -0.50903
  Beta  occ. eigenvalues --   -0.50011  -0.49585  -0.47339  -0.47049  -0.45181
  Beta  occ. eigenvalues --   -0.45043  -0.41261  -0.41102  -0.39684  -0.39295
  Beta  occ. eigenvalues --   -0.39291  -0.39130  -0.29813  -0.27916
  Beta virt. eigenvalues --    0.03817   0.04558   0.10521   0.12216   0.13291
  Beta virt. eigenvalues --    0.14298   0.14627   0.15502   0.15606   0.15897
  Beta virt. eigenvalues --    0.16864   0.16894   0.17119   0.18212   0.19895

 Mulliken charges and spin densities:
               1          2
     1  C   -0.209983  -0.000001
     2  C   -0.183588   0.000000
     3  H    0.142376   0.000000
     4  H    0.156289   0.000000
     5  C   -0.166401  -0.000001
     6  C   -0.183600   0.000000
     7  H    0.150815   0.000000
     8  H    0.156353  -0.000000
     9  C   -0.183879  -0.000001
    10  H    0.117458   0.000000
    11  H    0.130698   0.000000
    12  C   -0.157415   0.000000
    13  H    0.145683  -0.000000
    14  C   -0.209907   0.000001
    15  H    0.142367  -0.000000
    16  C   -0.175220   0.000000
    17  H    0.108287   0.000000
    18  H    0.124768  -0.000000
    19  C   -0.166374   0.000000
    20  H    0.150813  -0.000000
    21  C   -0.157340   0.000000
    22  H    0.145672   0.000000
    23  C   -0.183800   0.000001
    24  H    0.130615  -0.000000
    25  H    0.117475  -0.000000
    26  C   -0.175168  -0.000000
    27  H    0.124783   0.000000
    28  H    0.108226  -0.000000
 Sum of Mulliken charges =  -0.00000   0.00000

 Dipole moment (field-independent basis, Debye):
    X=             -0.0001    Y=              0.0001    Z=              0.0000  Tot=              0.0001
 Quadrupole moment (field-independent basis, Debye-Ang):
   XX=            -72.8030   YY=            -69.7449   ZZ=            -76.4498
   XY=             -3.2068   XZ=             -4.0401   YZ=             -1.6943

 Normal termination of Gaussian 16 at Mon Aug  3 14:02:15 2020.
