 Gaussian 16, Revision B.01,
 Gaussian 16:  ES64L-G16RevB.01 20-Dec-2017

 ----------------------------------------------------------------------
 #p uwb97xd guess=mix def2tzvp # scrf=(iefpcm,solvent=Cyclohexane,read)
  nosym 6d 10f
 ----------------------------------------------------------------------

 -----------------------
 endo-2 xp-pcm for eta=3
 -----------------------
 Symbolic Z-matrix:
 Charge =  0 Multiplicity = 1

                          Input orientation:
 ---------------------------------------------------------------------
 Center     Atomic      Atomic             Coordinates (Angstroms)
 Number     Number       Type             X           Y           Z
 ---------------------------------------------------------------------
      1          6           0       -3.125716   -0.440978    0.270604
      2          6           0       -0.764956   -0.259235   -1.286409
      3          1           0       -4.058512   -0.527829    0.815709
      4          1           0        0.176050   -0.180561   -1.817052
      5          6           0        1.190843    1.431055    0.823776
      6          6           0        0.764956    0.259235    1.286409
      7          1           0        0.599752    2.328066    0.965494
      8          1           0       -0.176050    0.180561    1.817052
      9          6           0        1.594875   -0.984626    1.150152
     10          1           0        2.156222   -1.113793    2.084526
     11          1           0        0.946262   -1.857408    1.063673
     12          6           0        2.468178    1.532445    0.116620
     13          1           0        2.867487    2.516684   -0.097237
     14          6           0        3.125716    0.440978   -0.270604
     15          1           0        4.058512    0.527829   -0.815709
     16          6           0        2.566903   -0.935493   -0.033026
     17          1           0        2.059865   -1.262257   -0.949209
     18          1           0        3.377104   -1.649532    0.126360
     19          6           0       -1.190843   -1.431055   -0.823776
     20          1           0       -0.599752   -2.328066   -0.965494
     21          6           0       -2.468178   -1.532445   -0.116620
     22          1           0       -2.867487   -2.516684    0.097237
     23          6           0       -1.594875    0.984626   -1.150152
     24          1           0       -0.946262    1.857408   -1.063673
     25          1           0       -2.156222    1.113793   -2.084526
     26          6           0       -2.566903    0.935493    0.033026
     27          1           0       -3.377104    1.649532   -0.126360
     28          1           0       -2.059865    1.262257    0.949209
 ---------------------------------------------------------------------

 SCF Done:  E(UwB97XD) =  -466.858578989     A.U. after   17 cycles

 Alpha  occ. eigenvalues --  -10.28516 -10.28515 -10.28324 -10.28322 -10.28312
 Alpha  occ. eigenvalues --  -10.28311 -10.28221 -10.28219 -10.28023 -10.28022
 Alpha  occ. eigenvalues --  -10.27653 -10.27652  -0.94198  -0.93693  -0.84265
 Alpha  occ. eigenvalues --   -0.84182  -0.83911  -0.83755  -0.71432  -0.71265
 Alpha  occ. eigenvalues --   -0.68017  -0.67977  -0.59800  -0.59655  -0.57437
 Alpha  occ. eigenvalues --   -0.56796  -0.53610  -0.52806  -0.51009  -0.50957
 Alpha  occ. eigenvalues --   -0.49969  -0.49504  -0.47388  -0.46983  -0.45189
 Alpha  occ. eigenvalues --   -0.45132  -0.41317  -0.41075  -0.39756  -0.39337
 Alpha  occ. eigenvalues --   -0.39288  -0.39069  -0.29838  -0.27734
 Alpha virt. eigenvalues --    0.03591   0.04792   0.10511   0.12244   0.13330
 Alpha virt. eigenvalues --    0.14397   0.14774   0.15580   0.15665   0.15845
 Alpha virt. eigenvalues --    0.16813   0.16886   0.17142   0.18202   0.19934

  Beta  occ. eigenvalues --  -10.28516 -10.28515 -10.28324 -10.28322 -10.28312
  Beta  occ. eigenvalues --  -10.28311 -10.28221 -10.28219 -10.28023 -10.28022
  Beta  occ. eigenvalues --  -10.27653 -10.27652  -0.94198  -0.93693  -0.84265
  Beta  occ. eigenvalues --   -0.84182  -0.83911  -0.83755  -0.71432  -0.71265
  Beta  occ. eigenvalues --   -0.68017  -0.67977  -0.59800  -0.59655  -0.57437
  Beta  occ. eigenvalues --   -0.56796  -0.53610  -0.52806  -0.51009  -0.50957
  Beta  occ. eigenvalues --   -0.49969  -0.49504  -0.47388  -0.46983  -0.45189
  Beta  occ. eigenvalues --   -0.45132  -0.41317  -0.41075  -0.39756  -0.39337
  Beta  occ. eigenvalues --   -0.39288  -0.39069  -0.29838  -0.27734
  Beta virt. eigenvalues --    0.03591   0.04792   0.10511   0.12244   0.13330
  Beta virt. eigenvalues --    0.14397   0.14774   0.15580   0.15665   0.15845
  Beta virt. eigenvalues --    0.16813   0.16886   0.17142   0.18202   0.19934

 Mulliken charges and spin densities:
               1          2
     1  C   -0.210086   0.000001
     2  C   -0.182040  -0.000000
     3  H    0.142103  -0.000000
     4  H    0.158828  -0.000000
     5  C   -0.169663   0.000000
     6  C   -0.182159  -0.000000
     7  H    0.152775  -0.000000
     8  H    0.158993   0.000000
     9  C   -0.194880   0.000001
    10  H    0.118298  -0.000000
    11  H    0.134571  -0.000000
    12  C   -0.156194  -0.000000
    13  H    0.145630   0.000000
    14  C   -0.210070  -0.000001
    15  H    0.142101   0.000000
    16  C   -0.175039  -0.000000
    17  H    0.110306  -0.000000
    18  H    0.125347   0.000000
    19  C   -0.169626  -0.000000
    20  H    0.152799   0.000000
    21  C   -0.156170  -0.000000
    22  H    0.145616  -0.000000
    23  C   -0.194949  -0.000001
    24  H    0.134587   0.000000
    25  H    0.118278   0.000000
    26  C   -0.175037   0.000000
    27  H    0.125363  -0.000000
    28  H    0.110319   0.000000
 Sum of Mulliken charges =  -0.00000  -0.00000

 Dipole moment (field-independent basis, Debye):
    X=             -0.0002    Y=              0.0002    Z=              0.0002  Tot=              0.0003
 Quadrupole moment (field-independent basis, Debye-Ang):
   XX=            -72.5390   YY=            -69.7894   ZZ=            -76.7490
   XY=             -3.2781   XZ=             -3.8688   YZ=             -1.7304

 Normal termination of Gaussian 16 at Mon Aug  3 14:27:50 2020.
