 Gaussian 16, Revision B.01,

 ----------------------------------------------------------------------
 #p uwb97xd guess=mix def2tzvp # scrf=(iefpcm,solvent=Cyclohexane,read)
  nosym 6d 10f
 ----------------------------------------------------------------------

 -----------------------
 endo-2 xp-pcm for eta=3
 -----------------------
 Symbolic Z-matrix:
 Charge =  0 Multiplicity = 1

 SCF Done:  E(UwB97XD) =  -466.816086859     A.U. after   16 cycles
 Normal termination of Gaussian 16 at Tue Aug  4 17:07:00 2020.

 ----------------------------------------------------------------------
 #p uwb97xd guess=mix def2tzvp # scrf=(iefpcm,solvent=Cyclohexane,read)
  nosym 6d 10f
 ----------------------------------------------------------------------

 -----------------------
 endo-2 xp-pcm for eta=3
 -----------------------
 Symbolic Z-matrix:
 Charge =  0 Multiplicity = 1

 SCF Done:  E(UwB97XD) =  -466.812776065     A.U. after   16 cycles
 Normal termination of Gaussian 16 at Tue Aug  4 17:12:14 2020.

 ----------------------------------------------------------------------
 #p uwb97xd guess=mix def2tzvp # scrf=(iefpcm,solvent=Cyclohexane,read)
  nosym 6d 10f
 ----------------------------------------------------------------------

 -----------------------
 endo-2 xp-pcm for eta=3
 -----------------------
 Symbolic Z-matrix:
 Charge =  0 Multiplicity = 1

 SCF Done:  E(UwB97XD) =  -466.807861216     A.U. after   16 cycles
 Normal termination of Gaussian 16 at Tue Aug  4 17:17:34 2020.

 ----------------------------------------------------------------------
 #p uwb97xd guess=mix def2tzvp # scrf=(iefpcm,solvent=Cyclohexane,read)
  nosym 6d 10f
 ----------------------------------------------------------------------

 -----------------------
 endo-2 xp-pcm for eta=3
 -----------------------
 Symbolic Z-matrix:
 Charge =  0 Multiplicity = 1

 SCF Done:  E(UwB97XD) =  -466.800115222     A.U. after   16 cycles
 Normal termination of Gaussian 16 at Tue Aug  4 17:22:45 2020.

 ----------------------------------------------------------------------
 #p uwb97xd guess=mix def2tzvp # scrf=(iefpcm,solvent=Cyclohexane,read)
  nosym 6d 10f
 ----------------------------------------------------------------------

 -----------------------
 endo-2 xp-pcm for eta=3
 -----------------------
 Symbolic Z-matrix:
 Charge =  0 Multiplicity = 1

 SCF Done:  E(UwB97XD) =  -466.791837487     A.U. after   16 cycles
 Normal termination of Gaussian 16 at Tue Aug  4 17:27:56 2020.

 ----------------------------------------------------------------------
 #p uwb97xd guess=mix def2tzvp # scrf=(iefpcm,solvent=Cyclohexane,read)
  nosym 6d 10f
 ----------------------------------------------------------------------

 -----------------------
 endo-2 xp-pcm for eta=3
 -----------------------
 Symbolic Z-matrix:
 Charge =  0 Multiplicity = 1

 SCF Done:  E(UwB97XD) =  -466.785068745     A.U. after   16 cycles
 Normal termination of Gaussian 16 at Tue Aug  4 17:33:10 2020.
 Gaussian 16:  ES64L-G16RevB.01 20-Dec-2017

                          Input orientation:
 ---------------------------------------------------------------------
 Center     Atomic      Atomic             Coordinates (Angstroms)
 Number     Number       Type             X           Y           Z
 ---------------------------------------------------------------------
      1          6           0       -3.119734   -0.426930    0.248214
      2          6           0       -0.452630   -0.134377   -0.766522
      3          1           0       -4.086028   -0.547352    0.722629
      4          1           0        0.332703   -0.111776   -1.521768
      5          6           0        1.115166    1.430657    0.672626
      6          6           0        0.452630    0.134377    0.766522
      7          1           0        0.561998    2.331699    0.905522
      8          1           0       -0.332703    0.111776    1.521768
      9          6           0        1.457223   -0.998723    0.982555
     10          1           0        1.882127   -0.904241    1.986471
     11          1           0        0.944658   -1.961243    0.946268
     12          6           0        2.397689    1.528359    0.123394
     13          1           0        2.825979    2.512496   -0.031045
     14          6           0        3.119734    0.426930   -0.248214
     15          1           0        4.086028    0.547352   -0.722629
     16          6           0        2.592798   -0.959299   -0.042549
     17          1           0        2.246207   -1.358828   -1.004791
     18          1           0        3.401603   -1.624548    0.271052
     19          6           0       -1.115166   -1.430657   -0.672626
     20          1           0       -0.561998   -2.331699   -0.905522
     21          6           0       -2.397689   -1.528359   -0.123394
     22          1           0       -2.825979   -2.512496    0.031045
     23          6           0       -1.457223    0.998723   -0.982556
     24          1           0       -0.944658    1.961243   -0.946268
     25          1           0       -1.882127    0.904241   -1.986471
     26          6           0       -2.592798    0.959299    0.042549
     27          1           0       -3.401603    1.624548   -0.271052
     28          1           0       -2.246207    1.358828    1.004791
 ---------------------------------------------------------------------

 SCF Done:  E(UwB97XD) =  -466.775619778     A.U. after   16 cycles

 Alpha  occ. eigenvalues --  -10.28789 -10.28569 -10.27540 -10.27330 -10.27226
 Alpha  occ. eigenvalues --  -10.27186 -10.26965 -10.26880 -10.26799 -10.26773
 Alpha  occ. eigenvalues --  -10.26657 -10.26606  -0.93911  -0.91818  -0.84161
 Alpha  occ. eigenvalues --   -0.83469  -0.82562  -0.80593  -0.70029  -0.69221
 Alpha  occ. eigenvalues --   -0.68480  -0.66708  -0.58898  -0.58147  -0.57444
 Alpha  occ. eigenvalues --   -0.55292  -0.52410  -0.51789  -0.49658  -0.48393
 Alpha  occ. eigenvalues --   -0.47861  -0.47091  -0.46796  -0.46239  -0.45434
 Alpha  occ. eigenvalues --   -0.43670  -0.40479  -0.39797  -0.38834  -0.38453
 Alpha  occ. eigenvalues --   -0.37418  -0.36121  -0.32512  -0.23827
 Alpha virt. eigenvalues --    0.01142   0.11210   0.13425   0.15515   0.15706
 Alpha virt. eigenvalues --    0.16426   0.17687   0.18511   0.19122   0.19424
 Alpha virt. eigenvalues --    0.19744   0.20220   0.21433   0.22866   0.23346

  Beta  occ. eigenvalues --  -10.28789 -10.28568 -10.27537 -10.27325 -10.27230
  Beta  occ. eigenvalues --  -10.27183 -10.26969 -10.26884 -10.26796 -10.26776
  Beta  occ. eigenvalues --  -10.26653 -10.26610  -0.93910  -0.91819  -0.84161
  Beta  occ. eigenvalues --   -0.83467  -0.82564  -0.80594  -0.70028  -0.69220
  Beta  occ. eigenvalues --   -0.68482  -0.66708  -0.58897  -0.58147  -0.57444
  Beta  occ. eigenvalues --   -0.55293  -0.52409  -0.51790  -0.49658  -0.48393
  Beta  occ. eigenvalues --   -0.47860  -0.47090  -0.46797  -0.46239  -0.45434
  Beta  occ. eigenvalues --   -0.43670  -0.40478  -0.39798  -0.38833  -0.38455
  Beta  occ. eigenvalues --   -0.37417  -0.36121  -0.32513  -0.23824
  Beta virt. eigenvalues --    0.01139   0.11212   0.13424   0.15512   0.15706
  Beta virt. eigenvalues --    0.16427   0.17688   0.18511   0.19122   0.19424
  Beta virt. eigenvalues --    0.19743   0.20219   0.21433   0.22868   0.23346

 Mulliken charges and spin densities:
               1          2
     1  C   -0.195419  -0.538205
     2  C   -0.175718   0.113848
     3  H    0.150386   0.022033
     4  H    0.162297  -0.010378
     5  C   -0.191091   0.603775
     6  C   -0.173547  -0.113834
     7  H    0.166694  -0.024364
     8  H    0.161558   0.010377
     9  C   -0.250131   0.010255
    10  H    0.134704  -0.001845
    11  H    0.148402  -0.001094
    12  C   -0.165380  -0.220581
    13  H    0.148504   0.008660
    14  C   -0.195500   0.538108
    15  H    0.150424  -0.022027
    16  C   -0.196109  -0.033094
    17  H    0.126451   0.030352
    18  H    0.135281   0.012994
    19  C   -0.192078  -0.603723
    20  H    0.167647   0.024343
    21  C   -0.164680   0.220585
    22  H    0.148598  -0.008664
    23  C   -0.249908  -0.010192
    24  H    0.148986   0.001075
    25  H    0.134542   0.001845
    26  C   -0.197901   0.033081
    27  H    0.135411  -0.012996
    28  H    0.127578  -0.030335
 Sum of Mulliken charges =  -0.00000  -0.00000

 Dipole moment (field-independent basis, Debye):
    X=             -0.0009    Y=             -0.0015    Z=             -0.0022  Tot=              0.0028
 Quadrupole moment (field-independent basis, Debye-Ang):
   XX=            -70.0632   YY=            -69.4562   ZZ=            -74.8874
   XY=             -2.7306   XZ=             -3.0607   YZ=             -0.3990

 Normal termination of Gaussian 16 at Tue Aug  4 17:38:31 2020.
