 Gaussian 16, Revision B.01,

 ----------------------------------------------------------------------
 #p uwb97xd guess=mix def2tzvp # scrf=(iefpcm,solvent=Cyclohexane,read)
  nosym 6d 10f
 ----------------------------------------------------------------------

 -----------------------
 endo-2 xp-pcm for eta=3
 -----------------------
 Symbolic Z-matrix:
 Charge =  0 Multiplicity = 1

 SCF Done:  E(UwB97XD) =  -466.826160446     A.U. after   19 cycles
 Normal termination of Gaussian 16 at Tue Aug  4 10:05:19 2020.

 ----------------------------------------------------------------------
 #p uwb97xd guess=mix def2tzvp # scrf=(iefpcm,solvent=Cyclohexane,read)
  nosym 6d 10f
 ----------------------------------------------------------------------

 -----------------------
 endo-2 xp-pcm for eta=3
 -----------------------
 Symbolic Z-matrix:
 Charge =  0 Multiplicity = 1

 SCF Done:  E(UwB97XD) =  -466.822964198     A.U. after   19 cycles
 Normal termination of Gaussian 16 at Tue Aug  4 10:11:24 2020.

 ----------------------------------------------------------------------
 #p uwb97xd guess=mix def2tzvp # scrf=(iefpcm,solvent=Cyclohexane,read)
  nosym 6d 10f
 ----------------------------------------------------------------------

 -----------------------
 endo-2 xp-pcm for eta=3
 -----------------------
 Symbolic Z-matrix:
 Charge =  0 Multiplicity = 1

 SCF Done:  E(UwB97XD) =  -466.818426444     A.U. after   19 cycles
 Normal termination of Gaussian 16 at Tue Aug  4 10:17:28 2020.

 ----------------------------------------------------------------------
 #p uwb97xd guess=mix def2tzvp # scrf=(iefpcm,solvent=Cyclohexane,read)
  nosym 6d 10f
 ----------------------------------------------------------------------

 -----------------------
 endo-2 xp-pcm for eta=3
 -----------------------
 Symbolic Z-matrix:
 Charge =  0 Multiplicity = 1

 SCF Done:  E(UwB97XD) =  -466.811500889     A.U. after   19 cycles
 Normal termination of Gaussian 16 at Tue Aug  4 10:23:34 2020.

 ----------------------------------------------------------------------
 #p uwb97xd guess=mix def2tzvp # scrf=(iefpcm,solvent=Cyclohexane,read)
  nosym 6d 10f
 ----------------------------------------------------------------------

 -----------------------
 endo-2 xp-pcm for eta=3
 -----------------------
 Symbolic Z-matrix:
 Charge =  0 Multiplicity = 1

 SCF Done:  E(UwB97XD) =  -466.801908751     A.U. after   19 cycles
 Normal termination of Gaussian 16 at Tue Aug  4 10:29:40 2020.

 ----------------------------------------------------------------------
 #p uwb97xd guess=mix def2tzvp # scrf=(iefpcm,solvent=Cyclohexane,read)
  nosym 6d 10f
 ----------------------------------------------------------------------

 -----------------------
 endo-2 xp-pcm for eta=3
 -----------------------
 Symbolic Z-matrix:
 Charge =  0 Multiplicity = 1

 SCF Done:  E(UwB97XD) =  -466.794191785     A.U. after   19 cycles
 Normal termination of Gaussian 16 at Tue Aug  4 10:35:45 2020.
 Gaussian 16:  ES64L-G16RevB.01 20-Dec-2017

                          Input orientation:
 ---------------------------------------------------------------------
 Center     Atomic      Atomic             Coordinates (Angstroms)
 Number     Number       Type             X           Y           Z
 ---------------------------------------------------------------------
      1          6           0       -3.120053   -0.437296    0.247601
      2          6           0       -0.582765   -0.208122   -0.986031
      3          1           0       -4.084035   -0.549421    0.730161
      4          1           0        0.376360   -0.119236   -1.476138
      5          6           0        1.092928    1.407235    0.695695
      6          6           0        0.582765    0.208122    0.986031
      7          1           0        0.514464    2.309116    0.849982
      8          1           0       -0.376360    0.119237    1.476138
      9          6           0        1.473441   -0.999882    0.998114
     10          1           0        1.930236   -1.007810    1.995578
     11          1           0        0.900886   -1.922279    0.917856
     12          6           0        2.421602    1.516304    0.111065
     13          1           0        2.830156    2.505119   -0.060741
     14          6           0        3.120053    0.437296   -0.247601
     15          1           0        4.084035    0.549421   -0.730161
     16          6           0        2.591259   -0.956820   -0.045733
     17          1           0        2.248403   -1.352514   -1.009798
     18          1           0        3.400569   -1.620098    0.266906
     19          6           0       -1.092928   -1.407235   -0.695695
     20          1           0       -0.514464   -2.309116   -0.849982
     21          6           0       -2.421602   -1.516304   -0.111065
     22          1           0       -2.830156   -2.505120    0.060741
     23          6           0       -1.473441    0.999882   -0.998114
     24          1           0       -0.900886    1.922279   -0.917856
     25          1           0       -1.930236    1.007810   -1.995578
     26          6           0       -2.591259    0.956820    0.045733
     27          1           0       -3.400569    1.620098   -0.266906
     28          1           0       -2.248403    1.352515    1.009798
 ---------------------------------------------------------------------

 SCF Done:  E(UwB97XD) =  -466.786992391     A.U. after   19 cycles

 Alpha  occ. eigenvalues --  -10.27381 -10.27381 -10.27324 -10.27320 -10.27005
 Alpha  occ. eigenvalues --  -10.27001 -10.26991 -10.26983 -10.26770 -10.26767
 Alpha  occ. eigenvalues --  -10.25997 -10.25994  -0.93793  -0.92454  -0.83923
 Alpha  occ. eigenvalues --   -0.83371  -0.82619  -0.82362  -0.70675  -0.69877
 Alpha  occ. eigenvalues --   -0.67562  -0.66804  -0.58962  -0.58873  -0.56809
 Alpha  occ. eigenvalues --   -0.55353  -0.52525  -0.52055  -0.50051  -0.49765
 Alpha  occ. eigenvalues --   -0.48816  -0.47902  -0.46626  -0.45923  -0.45006
 Alpha  occ. eigenvalues --   -0.43723  -0.40474  -0.39952  -0.38880  -0.38209
 Alpha  occ. eigenvalues --   -0.38120  -0.37452  -0.29588  -0.24814
 Alpha virt. eigenvalues --    0.02911   0.08122   0.13365   0.15228   0.16582
 Alpha virt. eigenvalues --    0.16623   0.17759   0.18679   0.18747   0.18935
 Alpha virt. eigenvalues --    0.19465   0.19619   0.20449   0.21407   0.22961

  Beta  occ. eigenvalues --  -10.27381 -10.27381 -10.27324 -10.27320 -10.27005
  Beta  occ. eigenvalues --  -10.27001 -10.26991 -10.26983 -10.26770 -10.26767
  Beta  occ. eigenvalues --  -10.25997 -10.25994  -0.93793  -0.92454  -0.83923
  Beta  occ. eigenvalues --   -0.83371  -0.82619  -0.82362  -0.70675  -0.69877
  Beta  occ. eigenvalues --   -0.67562  -0.66804  -0.58962  -0.58873  -0.56809
  Beta  occ. eigenvalues --   -0.55353  -0.52525  -0.52055  -0.50051  -0.49765
  Beta  occ. eigenvalues --   -0.48816  -0.47902  -0.46626  -0.45923  -0.45006
  Beta  occ. eigenvalues --   -0.43723  -0.40474  -0.39952  -0.38880  -0.38209
  Beta  occ. eigenvalues --   -0.38120  -0.37452  -0.29588  -0.24814
  Beta virt. eigenvalues --    0.02911   0.08122   0.13365   0.15228   0.16582
  Beta virt. eigenvalues --    0.16623   0.17759   0.18679   0.18747   0.18935
  Beta virt. eigenvalues --    0.19465   0.19619   0.20449   0.21407   0.22961

 Mulliken charges and spin densities:
               1          2
     1  C   -0.202086   0.000001
     2  C   -0.215468  -0.000001
     3  H    0.147842  -0.000000
     4  H    0.189658   0.000000
     5  C   -0.165462   0.000001
     6  C   -0.216763  -0.000001
     7  H    0.162452   0.000000
     8  H    0.188684  -0.000000
     9  C   -0.236459  -0.000000
    10  H    0.134434  -0.000000
    11  H    0.155039  -0.000000
    12  C   -0.176827  -0.000001
    13  H    0.150783  -0.000000
    14  C   -0.202690   0.000001
    15  H    0.147901  -0.000000
    16  C   -0.200972  -0.000000
    17  H    0.124972   0.000000
    18  H    0.134891   0.000000
    19  C   -0.167378   0.000000
    20  H    0.162570  -0.000000
    21  C   -0.176384  -0.000001
    22  H    0.150646   0.000000
    23  C   -0.237748   0.000000
    24  H    0.155890   0.000000
    25  H    0.134292  -0.000000
    26  C   -0.202169   0.000000
    27  H    0.135163   0.000000
    28  H    0.125187  -0.000000
 Sum of Mulliken charges =  -0.00000   0.00000

 Dipole moment (field-independent basis, Debye):
    X=             -0.0015    Y=              0.0001    Z=             -0.0056  Tot=              0.0058
 Quadrupole moment (field-independent basis, Debye-Ang):
   XX=            -70.3262   YY=            -68.3436   ZZ=            -75.5962
   XY=             -3.3692   XZ=             -3.2472   YZ=             -1.3978

 Normal termination of Gaussian 16 at Tue Aug  4 10:41:47 2020.
