 Gaussian 16, Revision B.01,

 ----------------------------------------------------------------------
 #p uwb97xd guess=mix def2tzvp # scrf=(iefpcm,solvent=Cyclohexane,read)
  nosym 6d 10f
 ----------------------------------------------------------------------

 -----------------------
 endo-2 xp-pcm for eta=3
 -----------------------
 Symbolic Z-matrix:
 Charge =  0 Multiplicity = 1

 SCF Done:  E(UwB97XD) =  -466.850484068     A.U. after   18 cycles
 Normal termination of Gaussian 16 at Mon Aug  3 21:40:56 2020.

 ----------------------------------------------------------------------
 #p uwb97xd guess=mix def2tzvp # scrf=(iefpcm,solvent=Cyclohexane,read)
  nosym 6d 10f
 ----------------------------------------------------------------------

 -----------------------
 endo-2 xp-pcm for eta=3
 -----------------------
 Symbolic Z-matrix:
 Charge =  0 Multiplicity = 1

 SCF Done:  E(UwB97XD) =  -466.847210272     A.U. after   17 cycles
 Normal termination of Gaussian 16 at Mon Aug  3 21:46:14 2020.

 ----------------------------------------------------------------------
 #p uwb97xd guess=mix def2tzvp # scrf=(iefpcm,solvent=Cyclohexane,read)
  nosym 6d 10f
 ----------------------------------------------------------------------

 -----------------------
 endo-2 xp-pcm for eta=3
 -----------------------
 Symbolic Z-matrix:
 Charge =  0 Multiplicity = 1

 SCF Done:  E(UwB97XD) =  -466.842300939     A.U. after   17 cycles
 Normal termination of Gaussian 16 at Mon Aug  3 21:51:30 2020.

 ----------------------------------------------------------------------
 #p uwb97xd guess=mix def2tzvp # scrf=(iefpcm,solvent=Cyclohexane,read)
  nosym 6d 10f
 ----------------------------------------------------------------------

 -----------------------
 endo-2 xp-pcm for eta=3
 -----------------------
 Symbolic Z-matrix:
 Charge =  0 Multiplicity = 1

 SCF Done:  E(UwB97XD) =  -466.835814606     A.U. after   17 cycles
 Normal termination of Gaussian 16 at Mon Aug  3 21:56:44 2020.

 ----------------------------------------------------------------------
 #p uwb97xd guess=mix def2tzvp # scrf=(iefpcm,solvent=Cyclohexane,read)
  nosym 6d 10f
 ----------------------------------------------------------------------

 -----------------------
 endo-2 xp-pcm for eta=3
 -----------------------
 Symbolic Z-matrix:
 Charge =  0 Multiplicity = 1

 SCF Done:  E(UwB97XD) =  -466.824986794     A.U. after   17 cycles
 Normal termination of Gaussian 16 at Mon Aug  3 22:02:11 2020.

 ----------------------------------------------------------------------
 #p uwb97xd guess=mix def2tzvp # scrf=(iefpcm,solvent=Cyclohexane,read)
  nosym 6d 10f
 ----------------------------------------------------------------------

 -----------------------
 endo-2 xp-pcm for eta=3
 -----------------------
 Symbolic Z-matrix:
 Charge =  0 Multiplicity = 1

 SCF Done:  E(UwB97XD) =  -466.819588334     A.U. after   17 cycles
 Normal termination of Gaussian 16 at Mon Aug  3 22:07:33 2020.
 Gaussian 16:  ES64L-G16RevB.01 20-Dec-2017

                          Input orientation:
 ---------------------------------------------------------------------
 Center     Atomic      Atomic             Coordinates (Angstroms)
 Number     Number       Type             X           Y           Z
 ---------------------------------------------------------------------
      1          6           0       -3.120165   -0.439520    0.280190
      2          6           0       -0.807998   -0.270483   -1.349166
      3          1           0       -4.039260   -0.519446    0.849052
      4          1           0        0.117969   -0.196755   -1.906627
      5          6           0        1.221266    1.438778    0.865571
      6          6           0        0.807998    0.270483    1.349166
      7          1           0        0.634256    2.337167    1.015854
      8          1           0       -0.117969    0.196755    1.906627
      9          6           0        1.635901   -0.972988    1.195334
     10          1           0        2.239675   -1.089626    2.104856
     11          1           0        0.987632   -1.849296    1.145396
     12          6           0        2.482134    1.535015    0.127997
     13          1           0        2.882920    2.517315   -0.091872
     14          6           0        3.120165    0.439520   -0.280190
     15          1           0        4.039260    0.519446   -0.849052
     16          6           0        2.551272   -0.930669   -0.031151
     17          1           0        1.991682   -1.236938   -0.923478
     18          1           0        3.354963   -1.660578    0.081874
     19          6           0       -1.221266   -1.438778   -0.865571
     20          1           0       -0.634256   -2.337167   -1.015854
     21          6           0       -2.482134   -1.535015   -0.127997
     22          1           0       -2.882920   -2.517315    0.091872
     23          6           0       -1.635901    0.972988   -1.195334
     24          1           0       -0.987632    1.849296   -1.145396
     25          1           0       -2.239675    1.089626   -2.104856
     26          6           0       -2.551272    0.930669    0.031151
     27          1           0       -3.354963    1.660578   -0.081874
     28          1           0       -1.991682    1.236938    0.923479
 ---------------------------------------------------------------------

 SCF Done:  E(UwB97XD) =  -466.812589213     A.U. after   17 cycles

 Alpha  occ. eigenvalues --  -10.27261 -10.27258 -10.27134 -10.27131 -10.27091
 Alpha  occ. eigenvalues --  -10.27089 -10.27086 -10.27083 -10.26798 -10.26795
 Alpha  occ. eigenvalues --  -10.26553 -10.26551  -0.93119  -0.92715  -0.83148
 Alpha  occ. eigenvalues --   -0.83091  -0.82915  -0.82716  -0.70292  -0.70236
 Alpha  occ. eigenvalues --   -0.66949  -0.66942  -0.58729  -0.58592  -0.56433
 Alpha  occ. eigenvalues --   -0.55882  -0.52436  -0.51709  -0.49907  -0.49846
 Alpha  occ. eigenvalues --   -0.48924  -0.48492  -0.46237  -0.45933  -0.44105
 Alpha  occ. eigenvalues --   -0.44009  -0.40181  -0.40012  -0.38615  -0.38301
 Alpha  occ. eigenvalues --   -0.38226  -0.38107  -0.28789  -0.26849
 Alpha virt. eigenvalues --    0.05007   0.05783   0.13281   0.14511   0.16370
 Alpha virt. eigenvalues --    0.16776   0.17134   0.18072   0.18316   0.18963
 Alpha virt. eigenvalues --    0.19637   0.19668   0.20087   0.21216   0.22967

  Beta  occ. eigenvalues --  -10.27261 -10.27258 -10.27134 -10.27131 -10.27091
  Beta  occ. eigenvalues --  -10.27089 -10.27086 -10.27083 -10.26798 -10.26795
  Beta  occ. eigenvalues --  -10.26553 -10.26551  -0.93119  -0.92715  -0.83148
  Beta  occ. eigenvalues --   -0.83091  -0.82915  -0.82716  -0.70292  -0.70236
  Beta  occ. eigenvalues --   -0.66949  -0.66942  -0.58729  -0.58592  -0.56433
  Beta  occ. eigenvalues --   -0.55882  -0.52436  -0.51709  -0.49907  -0.49846
  Beta  occ. eigenvalues --   -0.48924  -0.48492  -0.46237  -0.45933  -0.44105
  Beta  occ. eigenvalues --   -0.44009  -0.40181  -0.40012  -0.38615  -0.38301
  Beta  occ. eigenvalues --   -0.38226  -0.38107  -0.28789  -0.26849
  Beta virt. eigenvalues --    0.05007   0.05783   0.13281   0.14511   0.16370
  Beta virt. eigenvalues --    0.16776   0.17134   0.18072   0.18316   0.18963
  Beta virt. eigenvalues --    0.19637   0.19668   0.20087   0.21216   0.22967

 Mulliken charges and spin densities:
               1          2
     1  C   -0.204268  -0.000001
     2  C   -0.199238   0.000000
     3  H    0.148604   0.000000
     4  H    0.168754   0.000000
     5  C   -0.190952  -0.000000
     6  C   -0.196162  -0.000000
     7  H    0.166957   0.000000
     8  H    0.168695  -0.000000
     9  C   -0.210216  -0.000001
    10  H    0.131197   0.000000
    11  H    0.139839   0.000000
    12  C   -0.163011  -0.000000
    13  H    0.152506  -0.000000
    14  C   -0.203445   0.000001
    15  H    0.148604  -0.000000
    16  C   -0.192672   0.000000
    17  H    0.115769  -0.000000
    18  H    0.133068  -0.000000
    19  C   -0.190221   0.000000
    20  H    0.168020  -0.000000
    21  C   -0.161241   0.000000
    22  H    0.151858   0.000000
    23  C   -0.207929   0.000001
    24  H    0.139159  -0.000000
    25  H    0.131012  -0.000000
    26  C   -0.192109  -0.000000
    27  H    0.132896   0.000000
    28  H    0.114527   0.000000
 Sum of Mulliken charges =  -0.00000   0.00000

 Dipole moment (field-independent basis, Debye):
    X=             -0.0016    Y=             -0.0001    Z=             -0.0006  Tot=              0.0017
 Quadrupole moment (field-independent basis, Debye-Ang):
   XX=            -70.5566   YY=            -68.0602   ZZ=            -74.9297
   XY=             -3.2743   XZ=             -3.9621   YZ=             -1.7050

 Normal termination of Gaussian 16 at Mon Aug  3 22:12:48 2020.
