 Gaussian 16, Revision B.01,

 ----------------------------------------------------------------------
 #p uwb97xd guess=mix def2tzvp # scrf=(iefpcm,solvent=Cyclohexane,read)
  nosym 6d 10f
 ----------------------------------------------------------------------

 -----------------------
 endo-2 xp-pcm for eta=3
 -----------------------
 Symbolic Z-matrix:
 Charge =  0 Multiplicity = 1

 SCF Done:  E(UwB97XD) =  -466.819953878     A.U. after   14 cycles
 Normal termination of Gaussian 16 at Tue Aug  4 17:43:43 2020.

 ----------------------------------------------------------------------
 #p uwb97xd guess=mix def2tzvp # scrf=(iefpcm,solvent=Cyclohexane,read)
  nosym 6d 10f
 ----------------------------------------------------------------------

 -----------------------
 endo-2 xp-pcm for eta=3
 -----------------------
 Symbolic Z-matrix:
 Charge =  0 Multiplicity = 1

 SCF Done:  E(UwB97XD) =  -466.817087363     A.U. after   14 cycles
 Normal termination of Gaussian 16 at Tue Aug  4 17:48:23 2020.

 ----------------------------------------------------------------------
 #p uwb97xd guess=mix def2tzvp # scrf=(iefpcm,solvent=Cyclohexane,read)
  nosym 6d 10f
 ----------------------------------------------------------------------

 -----------------------
 endo-2 xp-pcm for eta=3
 -----------------------
 Symbolic Z-matrix:
 Charge =  0 Multiplicity = 1

 SCF Done:  E(UwB97XD) =  -466.812048180     A.U. after   14 cycles
 Normal termination of Gaussian 16 at Tue Aug  4 17:53:01 2020.

 ----------------------------------------------------------------------
 #p uwb97xd guess=mix def2tzvp # scrf=(iefpcm,solvent=Cyclohexane,read)
  nosym 6d 10f
 ----------------------------------------------------------------------

 -----------------------
 endo-2 xp-pcm for eta=3
 -----------------------
 Symbolic Z-matrix:
 Charge =  0 Multiplicity = 1

 SCF Done:  E(UwB97XD) =  -466.804700873     A.U. after   14 cycles
 Normal termination of Gaussian 16 at Tue Aug  4 17:57:41 2020.

 ----------------------------------------------------------------------
 #p uwb97xd guess=mix def2tzvp # scrf=(iefpcm,solvent=Cyclohexane,read)
  nosym 6d 10f
 ----------------------------------------------------------------------

 -----------------------
 endo-2 xp-pcm for eta=3
 -----------------------
 Symbolic Z-matrix:
 Charge =  0 Multiplicity = 1

 SCF Done:  E(UwB97XD) =  -466.796041678     A.U. after   14 cycles
 Normal termination of Gaussian 16 at Tue Aug  4 18:02:25 2020.

 ----------------------------------------------------------------------
 #p uwb97xd guess=mix def2tzvp # scrf=(iefpcm,solvent=Cyclohexane,read)
  nosym 6d 10f
 ----------------------------------------------------------------------

 -----------------------
 endo-2 xp-pcm for eta=3
 -----------------------
 Symbolic Z-matrix:
 Charge =  0 Multiplicity = 1

 SCF Done:  E(UwB97XD) =  -466.790042697     A.U. after   14 cycles
 Normal termination of Gaussian 16 at Tue Aug  4 18:07:07 2020.
 Gaussian 16:  ES64L-G16RevB.01 20-Dec-2017

                          Input orientation:
 ---------------------------------------------------------------------
 Center     Atomic      Atomic             Coordinates (Angstroms)
 Number     Number       Type             X           Y           Z
 ---------------------------------------------------------------------
      1          6           0       -3.119691   -0.425826    0.248428
      2          6           0       -0.438059   -0.127566   -0.740444
      3          1           0       -4.086791   -0.546863    0.720948
      4          1           0        0.329828   -0.109733   -1.515278
      5          6           0        1.116208    1.432588    0.668787
      6          6           0        0.438059    0.127566    0.740444
      7          1           0        0.567375    2.333262    0.913532
      8          1           0       -0.329828    0.109733    1.515278
      9          6           0        1.453963   -0.997822    0.978822
     10          1           0        1.872621   -0.887919    1.983401
     11          1           0        0.950096   -1.965338    0.950002
     12          6           0        2.395835    1.529761    0.125114
     13          1           0        2.827943    2.513325   -0.022973
     14          6           0        3.119691    0.425826   -0.248428
     15          1           0        4.086791    0.546863   -0.720948
     16          6           0        2.592903   -0.959744   -0.042391
     17          1           0        2.246941   -1.360164   -1.004660
     18          1           0        3.401404   -1.625003    0.272285
     19          6           0       -1.116208   -1.432588   -0.668787
     20          1           0       -0.567375   -2.333262   -0.913532
     21          6           0       -2.395835   -1.529761   -0.125114
     22          1           0       -2.827943   -2.513325    0.022973
     23          6           0       -1.453963    0.997822   -0.978822
     24          1           0       -0.950096    1.965338   -0.950002
     25          1           0       -1.872621    0.887919   -1.983401
     26          6           0       -2.592903    0.959744    0.042391
     27          1           0       -3.401404    1.625003   -0.272284
     28          1           0       -2.246941    1.360164    1.004660
 ---------------------------------------------------------------------

 SCF Done:  E(UwB97XD) =  -466.782293514     A.U. after   14 cycles

 Alpha  occ. eigenvalues --  -10.28682 -10.28501 -10.27578 -10.27371 -10.27222
 Alpha  occ. eigenvalues --  -10.27178 -10.26978 -10.26896 -10.26785 -10.26761
 Alpha  occ. eigenvalues --  -10.26664 -10.26645  -0.93974  -0.91746  -0.84287
 Alpha  occ. eigenvalues --   -0.83485  -0.82555  -0.80374  -0.70031  -0.69380
 Alpha  occ. eigenvalues --   -0.68382  -0.66657  -0.58913  -0.58111  -0.57544
 Alpha  occ. eigenvalues --   -0.55282  -0.52452  -0.51715  -0.49660  -0.48236
 Alpha  occ. eigenvalues --   -0.47799  -0.47149  -0.46923  -0.46205  -0.45331
 Alpha  occ. eigenvalues --   -0.43690  -0.40487  -0.39790  -0.38882  -0.38309
 Alpha  occ. eigenvalues --   -0.37181  -0.36117  -0.32952  -0.23993
 Alpha virt. eigenvalues --    0.01219   0.11458   0.13435   0.15449   0.15667
 Alpha virt. eigenvalues --    0.16510   0.17691   0.18489   0.19127   0.19426
 Alpha virt. eigenvalues --    0.19818   0.20222   0.21459   0.22995   0.23298

  Beta  occ. eigenvalues --  -10.28684 -10.28499 -10.27578 -10.27372 -10.27223
  Beta  occ. eigenvalues --  -10.27177 -10.26978 -10.26896 -10.26782 -10.26763
  Beta  occ. eigenvalues --  -10.26663 -10.26644  -0.93974  -0.91746  -0.84287
  Beta  occ. eigenvalues --   -0.83485  -0.82555  -0.80374  -0.70031  -0.69380
  Beta  occ. eigenvalues --   -0.68382  -0.66657  -0.58913  -0.58111  -0.57543
  Beta  occ. eigenvalues --   -0.55282  -0.52452  -0.51716  -0.49660  -0.48236
  Beta  occ. eigenvalues --   -0.47798  -0.47149  -0.46923  -0.46205  -0.45331
  Beta  occ. eigenvalues --   -0.43690  -0.40487  -0.39789  -0.38882  -0.38310
  Beta  occ. eigenvalues --   -0.37181  -0.36116  -0.32952  -0.23994
  Beta virt. eigenvalues --    0.01221   0.11458   0.13435   0.15449   0.15667
  Beta virt. eigenvalues --    0.16510   0.17691   0.18489   0.19126   0.19426
  Beta virt. eigenvalues --    0.19819   0.20221   0.21458   0.22996   0.23297

 Mulliken charges and spin densities:
               1          2
     1  C   -0.194616  -0.560397
     2  C   -0.167654   0.089257
     3  H    0.150509   0.022935
     4  H    0.159560  -0.009542
     5  C   -0.198262   0.611882
     6  C   -0.166446  -0.089234
     7  H    0.167508  -0.024657
     8  H    0.158781   0.009548
     9  C   -0.252091   0.010230
    10  H    0.135078  -0.001025
    11  H    0.148705  -0.000668
    12  C   -0.162580  -0.222526
    13  H    0.148062   0.008850
    14  C   -0.193997   0.560347
    15  H    0.150543  -0.022931
    16  C   -0.197507  -0.034122
    17  H    0.126741   0.031743
    18  H    0.135532   0.013485
    19  C   -0.199926  -0.611860
    20  H    0.167640   0.024652
    21  C   -0.161688   0.222555
    22  H    0.148250  -0.008853
    23  C   -0.248903  -0.010212
    24  H    0.148581   0.000656
    25  H    0.134044   0.001028
    26  C   -0.198281   0.034115
    27  H    0.135808  -0.013494
    28  H    0.126610  -0.031761
 Sum of Mulliken charges =  -0.00000  -0.00000

 Dipole moment (field-independent basis, Debye):
    X=             -0.0016    Y=              0.0008    Z=             -0.0037  Tot=              0.0041
 Quadrupole moment (field-independent basis, Debye-Ang):
   XX=            -69.9756   YY=            -69.5160   ZZ=            -74.8676
   XY=             -2.6455   XZ=             -3.0065   YZ=             -0.3287

 Normal termination of Gaussian 16 at Tue Aug  4 18:11:43 2020.
