 Gaussian 16, Revision B.01,
 Gaussian 16:  ES64L-G16RevB.01 20-Dec-2017

 ----------------------------------------------------------------------
 #p uwb97xd guess=mix def2tzvp # scrf=(iefpcm,solvent=Cyclohexane,read)
  nosym 6d 10f
 ----------------------------------------------------------------------

 -----------------------
 endo-2 xp-pcm for eta=3
 -----------------------
 Symbolic Z-matrix:
 Charge =  0 Multiplicity = 1

                          Input orientation:
 ---------------------------------------------------------------------
 Center     Atomic      Atomic             Coordinates (Angstroms)
 Number     Number       Type             X           Y           Z
 ---------------------------------------------------------------------
      1          6           0       -3.126220   -0.440488    0.253489
      2          6           0       -0.672219   -0.236821   -1.146356
      3          1           0       -4.082957   -0.541745    0.752734
      4          1           0        0.294206   -0.146815   -1.625125
      5          6           0        1.129787    1.418428    0.743520
      6          6           0        0.672219    0.236821    1.146356
      7          1           0        0.536815    2.315578    0.872168
      8          1           0       -0.294206    0.146815    1.625125
      9          6           0        1.518650   -0.999998    1.059609
     10          1           0        2.012318   -1.114204    2.032991
     11          1           0        0.891136   -1.882004    0.937960
     12          6           0        2.439953    1.524706    0.104897
     13          1           0        2.843940    2.511426   -0.087900
     14          6           0        3.126220    0.440488   -0.253489
     15          1           0        4.082957    0.541745   -0.752734
     16          6           0        2.584411   -0.946808   -0.040911
     17          1           0        2.177912   -1.311853   -0.992206
     18          1           0        3.397883   -1.630946    0.208832
     19          6           0       -1.129787   -1.418428   -0.743520
     20          1           0       -0.536815   -2.315578   -0.872168
     21          6           0       -2.439953   -1.524706   -0.104897
     22          1           0       -2.843940   -2.511426    0.087900
     23          6           0       -1.518650    0.999998   -1.059609
     24          1           0       -0.891135    1.882004   -0.937960
     25          1           0       -2.012317    1.114205   -2.032991
     26          6           0       -2.584411    0.946808    0.040911
     27          1           0       -3.397883    1.630946   -0.208832
     28          1           0       -2.177912    1.311853    0.992206
 ---------------------------------------------------------------------

 SCF Done:  E(UwB97XD) =  -466.851820427     A.U. after   18 cycles

 Alpha  occ. eigenvalues --  -10.28600 -10.28600 -10.28291 -10.28291 -10.28267
 Alpha  occ. eigenvalues --  -10.28267 -10.28221 -10.28221 -10.28020 -10.28020
 Alpha  occ. eigenvalues --  -10.27449 -10.27448  -0.94403  -0.93569  -0.84535
 Alpha  occ. eigenvalues --   -0.84328  -0.83725  -0.83723  -0.71652  -0.71166
 Alpha  occ. eigenvalues --   -0.68191  -0.67947  -0.59879  -0.59751  -0.57525
 Alpha  occ. eigenvalues --   -0.56588  -0.53780  -0.52914  -0.51043  -0.51025
 Alpha  occ. eigenvalues --   -0.49915  -0.49288  -0.47561  -0.46928  -0.45558
 Alpha  occ. eigenvalues --   -0.45016  -0.41452  -0.41034  -0.39887  -0.39307
 Alpha  occ. eigenvalues --   -0.39245  -0.38880  -0.30020  -0.27193
 Alpha virt. eigenvalues --    0.03013   0.05466   0.10518   0.12326   0.13403
 Alpha virt. eigenvalues --    0.14549   0.14894   0.15700   0.15809   0.15836
 Alpha virt. eigenvalues --    0.16666   0.16961   0.17306   0.18229   0.19973

  Beta  occ. eigenvalues --  -10.28600 -10.28600 -10.28291 -10.28291 -10.28267
  Beta  occ. eigenvalues --  -10.28267 -10.28221 -10.28221 -10.28020 -10.28020
  Beta  occ. eigenvalues --  -10.27449 -10.27448  -0.94403  -0.93569  -0.84535
  Beta  occ. eigenvalues --   -0.84328  -0.83725  -0.83723  -0.71652  -0.71166
  Beta  occ. eigenvalues --   -0.68191  -0.67947  -0.59879  -0.59751  -0.57525
  Beta  occ. eigenvalues --   -0.56588  -0.53780  -0.52914  -0.51043  -0.51025
  Beta  occ. eigenvalues --   -0.49915  -0.49288  -0.47561  -0.46928  -0.45558
  Beta  occ. eigenvalues --   -0.45016  -0.41452  -0.41034  -0.39887  -0.39307
  Beta  occ. eigenvalues --   -0.39245  -0.38880  -0.30020  -0.27193
  Beta virt. eigenvalues --    0.03013   0.05466   0.10518   0.12326   0.13403
  Beta virt. eigenvalues --    0.14549   0.14894   0.15700   0.15809   0.15836
  Beta virt. eigenvalues --    0.16666   0.16961   0.17306   0.18229   0.19973

 Mulliken charges and spin densities:
               1          2
     1  C   -0.209261  -0.000001
     2  C   -0.190221   0.000000
     3  H    0.141642   0.000000
     4  H    0.166318  -0.000000
     5  C   -0.160591  -0.000000
     6  C   -0.189987  -0.000000
     7  H    0.154159   0.000000
     8  H    0.166213   0.000000
     9  C   -0.211278  -0.000001
    10  H    0.119560   0.000000
    11  H    0.140888   0.000000
    12  C   -0.162237  -0.000000
    13  H    0.145080  -0.000000
    14  C   -0.209229   0.000000
    15  H    0.141643  -0.000000
    16  C   -0.172869   0.000000
    17  H    0.112642  -0.000000
    18  H    0.125997  -0.000000
    19  C   -0.160458  -0.000000
    20  H    0.154219  -0.000000
    21  C   -0.162170   0.000000
    22  H    0.145061   0.000000
    23  C   -0.211335   0.000001
    24  H    0.140917  -0.000000
    25  H    0.119533  -0.000000
    26  C   -0.172909  -0.000000
    27  H    0.126005   0.000000
    28  H    0.112670   0.000000
 Sum of Mulliken charges =  -0.00000   0.00000

 Dipole moment (field-independent basis, Debye):
    X=              0.0002    Y=              0.0002    Z=             -0.0001  Tot=              0.0003
 Quadrupole moment (field-independent basis, Debye-Ang):
   XX=            -72.2424   YY=            -69.8342   ZZ=            -77.1658
   XY=             -3.3322   XZ=             -3.5312   YZ=             -1.6809

 Normal termination of Gaussian 16 at Mon Aug  3 15:10:28 2020.
