 Gaussian 16, Revision B.01,
 Gaussian 16:  ES64L-G16RevB.01 20-Dec-2017

 ----------------------------------------------------------------------
 #p uwb97xd guess=mix def2tzvp # scrf=(iefpcm,solvent=Cyclohexane,read)
  nosym 6d 10f
 ----------------------------------------------------------------------

 -----------------------
 endo-2 xp-pcm for eta=3
 -----------------------
 Symbolic Z-matrix:
 Charge =  0 Multiplicity = 1

                          Input orientation:
 ---------------------------------------------------------------------
 Center     Atomic      Atomic             Coordinates (Angstroms)
 Number     Number       Type             X           Y           Z
 ---------------------------------------------------------------------
      1          6           0       -3.118545   -0.423500    0.248223
      2          6           0       -0.402344   -0.116575   -0.672864
      3          1           0       -4.093571   -0.546048    0.703566
      4          1           0        0.333633   -0.108030   -1.481168
      5          6           0        1.107682    1.434119    0.643785
      6          6           0        0.402344    0.116575    0.672864
      7          1           0        0.575901    2.330463    0.937322
      8          1           0       -0.333633    0.108030    1.481168
      9          6           0        1.433587   -0.989852    0.953879
     10          1           0        1.831677   -0.829046    1.959162
     11          1           0        0.953866   -1.970051    0.954345
     12          6           0        2.392223    1.530795    0.133818
     13          1           0        2.840546    2.512465    0.025049
     14          6           0        3.118545    0.423500   -0.248223
     15          1           0        4.093571    0.546048   -0.703566
     16          6           0        2.590666   -0.961461   -0.045609
     17          1           0        2.263468   -1.371998   -1.010466
     18          1           0        3.394447   -1.622447    0.290265
     19          6           0       -1.107682   -1.434119   -0.643785
     20          1           0       -0.575901   -2.330463   -0.937322
     21          6           0       -2.392223   -1.530795   -0.133818
     22          1           0       -2.840546   -2.512465   -0.025049
     23          6           0       -1.433587    0.989852   -0.953879
     24          1           0       -0.953866    1.970051   -0.954345
     25          1           0       -1.831677    0.829046   -1.959162
     26          6           0       -2.590666    0.961461    0.045609
     27          1           0       -3.394447    1.622447   -0.290265
     28          1           0       -2.263468    1.371998    1.010466
 ---------------------------------------------------------------------

 SCF Done:  E(UwB97XD) =  -466.836683273     A.U. after   15 cycles

 Alpha  occ. eigenvalues --  -10.29161 -10.29036 -10.28869 -10.28575 -10.28426
 Alpha  occ. eigenvalues --  -10.28380 -10.28216 -10.28147 -10.27897 -10.27848
 Alpha  occ. eigenvalues --  -10.27836 -10.27817  -0.95508  -0.92701  -0.85973
 Alpha  occ. eigenvalues --   -0.84577  -0.83562  -0.81009  -0.71498  -0.70692
 Alpha  occ. eigenvalues --   -0.69185  -0.67540  -0.60182  -0.59339  -0.58717
 Alpha  occ. eigenvalues --   -0.56202  -0.53663  -0.52621  -0.50940  -0.49062
 Alpha  occ. eigenvalues --   -0.48987  -0.48636  -0.48263  -0.47380  -0.45965
 Alpha  occ. eigenvalues --   -0.44725  -0.41435  -0.40913  -0.40086  -0.38929
 Alpha  occ. eigenvalues --   -0.37711  -0.37347  -0.34730  -0.25279
 Alpha virt. eigenvalues --    0.00163   0.10522   0.10580   0.12331   0.13159
 Alpha virt. eigenvalues --    0.14049   0.14755   0.15391   0.16039   0.16300
 Alpha virt. eigenvalues --    0.17017   0.17154   0.18398   0.19971   0.20156

  Beta  occ. eigenvalues --  -10.29161 -10.29035 -10.28869 -10.28575 -10.28427
  Beta  occ. eigenvalues --  -10.28379 -10.28217 -10.28148 -10.27896 -10.27849
  Beta  occ. eigenvalues --  -10.27835 -10.27818  -0.95507  -0.92701  -0.85973
  Beta  occ. eigenvalues --   -0.84577  -0.83563  -0.81009  -0.71498  -0.70692
  Beta  occ. eigenvalues --   -0.69186  -0.67540  -0.60182  -0.59339  -0.58717
  Beta  occ. eigenvalues --   -0.56202  -0.53663  -0.52621  -0.50940  -0.49062
  Beta  occ. eigenvalues --   -0.48987  -0.48636  -0.48263  -0.47380  -0.45965
  Beta  occ. eigenvalues --   -0.44724  -0.41435  -0.40913  -0.40086  -0.38929
  Beta  occ. eigenvalues --   -0.37711  -0.37347  -0.34731  -0.25278
  Beta virt. eigenvalues --    0.00162   0.10523   0.10580   0.12331   0.13158
  Beta virt. eigenvalues --    0.14048   0.14756   0.15391   0.16039   0.16300
  Beta virt. eigenvalues --    0.17017   0.17153   0.18398   0.19972   0.20156

 Mulliken charges and spin densities:
               1          2
     1  C   -0.198488  -0.597669
     2  C   -0.105499   0.052072
     3  H    0.144854   0.025093
     4  H    0.130073  -0.008201
     5  C   -0.206355   0.620273
     6  C   -0.105515  -0.052075
     7  H    0.159760  -0.025869
     8  H    0.130038   0.008202
     9  C   -0.220491   0.011216
    10  H    0.118546  -0.000235
    11  H    0.135181  -0.000452
    12  C   -0.162040  -0.226376
    13  H    0.141826   0.009584
    14  C   -0.198544   0.597671
    15  H    0.144862  -0.025094
    16  C   -0.181494  -0.037068
    17  H    0.116432   0.033207
    18  H    0.127800   0.014600
    19  C   -0.206365  -0.620280
    20  H    0.159724   0.025870
    21  C   -0.162165   0.226382
    22  H    0.141846  -0.009584
    23  C   -0.220475  -0.011217
    24  H    0.135120   0.000452
    25  H    0.118612   0.000235
    26  C   -0.181502   0.037069
    27  H    0.127802  -0.014600
    28  H    0.116457  -0.033207
 Sum of Mulliken charges =  -0.00000   0.00000

 Dipole moment (field-independent basis, Debye):
    X=             -0.0003    Y=             -0.0003    Z=              0.0003  Tot=              0.0005
 Quadrupole moment (field-independent basis, Debye-Ang):
   XX=            -71.9361   YY=            -71.2274   ZZ=            -76.3075
   XY=             -2.3969   XZ=             -2.7134   YZ=              0.0632

 Normal termination of Gaussian 16 at Mon Aug  3 17:02:38 2020.
