 Gaussian 16, Revision B.01,

 ----------------------------------------------------------------------
 #p uwb97xd guess=mix def2tzvp # scrf=(iefpcm,solvent=Cyclohexane,read)
  nosym 6d 10f
 ----------------------------------------------------------------------

 -----------------------
 endo-2 xp-pcm for eta=3
 -----------------------
 Symbolic Z-matrix:
 Charge =  0 Multiplicity = 1

 SCF Done:  E(UwB97XD) =  -466.848684527     A.U. after   17 cycles
 Normal termination of Gaussian 16 at Tue Aug  4 00:10:29 2020.

 ----------------------------------------------------------------------
 #p uwb97xd guess=mix def2tzvp # scrf=(iefpcm,solvent=Cyclohexane,read)
  nosym 6d 10f
 ----------------------------------------------------------------------

 -----------------------
 endo-2 xp-pcm for eta=3
 -----------------------
 Symbolic Z-matrix:
 Charge =  0 Multiplicity = 1

 SCF Done:  E(UwB97XD) =  -466.845743788     A.U. after   17 cycles
 Normal termination of Gaussian 16 at Tue Aug  4 00:15:49 2020.

 ----------------------------------------------------------------------
 #p uwb97xd guess=mix def2tzvp # scrf=(iefpcm,solvent=Cyclohexane,read)
  nosym 6d 10f
 ----------------------------------------------------------------------

 -----------------------
 endo-2 xp-pcm for eta=3
 -----------------------
 Symbolic Z-matrix:
 Charge =  0 Multiplicity = 1

 SCF Done:  E(UwB97XD) =  -466.840977853     A.U. after   17 cycles
 Normal termination of Gaussian 16 at Tue Aug  4 00:21:07 2020.

 ----------------------------------------------------------------------
 #p uwb97xd guess=mix def2tzvp # scrf=(iefpcm,solvent=Cyclohexane,read)
  nosym 6d 10f
 ----------------------------------------------------------------------

 -----------------------
 endo-2 xp-pcm for eta=3
 -----------------------
 Symbolic Z-matrix:
 Charge =  0 Multiplicity = 1

 SCF Done:  E(UwB97XD) =  -466.834037320     A.U. after   17 cycles
 Normal termination of Gaussian 16 at Tue Aug  4 00:26:27 2020.

 ----------------------------------------------------------------------
 #p uwb97xd guess=mix def2tzvp # scrf=(iefpcm,solvent=Cyclohexane,read)
  nosym 6d 10f
 ----------------------------------------------------------------------

 -----------------------
 endo-2 xp-pcm for eta=3
 -----------------------
 Symbolic Z-matrix:
 Charge =  0 Multiplicity = 1

 SCF Done:  E(UwB97XD) =  -466.824264705     A.U. after   17 cycles
 Normal termination of Gaussian 16 at Tue Aug  4 00:31:45 2020.

 ----------------------------------------------------------------------
 #p uwb97xd guess=mix def2tzvp # scrf=(iefpcm,solvent=Cyclohexane,read)
  nosym 6d 10f
 ----------------------------------------------------------------------

 -----------------------
 endo-2 xp-pcm for eta=3
 -----------------------
 Symbolic Z-matrix:
 Charge =  0 Multiplicity = 1

 SCF Done:  E(UwB97XD) =  -466.817304573     A.U. after   17 cycles
 Normal termination of Gaussian 16 at Tue Aug  4 00:37:07 2020.
 Gaussian 16:  ES64L-G16RevB.01 20-Dec-2017

                          Input orientation:
 ---------------------------------------------------------------------
 Center     Atomic      Atomic             Coordinates (Angstroms)
 Number     Number       Type             X           Y           Z
 ---------------------------------------------------------------------
      1          6           0       -3.125716   -0.440978    0.270604
      2          6           0       -0.764956   -0.259235   -1.286409
      3          1           0       -4.058512   -0.527829    0.815709
      4          1           0        0.176050   -0.180561   -1.817052
      5          6           0        1.190843    1.431055    0.823776
      6          6           0        0.764956    0.259235    1.286409
      7          1           0        0.599752    2.328066    0.965494
      8          1           0       -0.176050    0.180561    1.817052
      9          6           0        1.594875   -0.984626    1.150152
     10          1           0        2.156222   -1.113793    2.084526
     11          1           0        0.946262   -1.857408    1.063673
     12          6           0        2.468178    1.532445    0.116620
     13          1           0        2.867487    2.516684   -0.097237
     14          6           0        3.125716    0.440978   -0.270604
     15          1           0        4.058512    0.527829   -0.815709
     16          6           0        2.566903   -0.935493   -0.033026
     17          1           0        2.059865   -1.262257   -0.949209
     18          1           0        3.377104   -1.649532    0.126360
     19          6           0       -1.190843   -1.431055   -0.823776
     20          1           0       -0.599752   -2.328066   -0.965494
     21          6           0       -2.468178   -1.532445   -0.116620
     22          1           0       -2.867487   -2.516684    0.097237
     23          6           0       -1.594875    0.984626   -1.150152
     24          1           0       -0.946262    1.857408   -1.063673
     25          1           0       -2.156222    1.113793   -2.084526
     26          6           0       -2.566903    0.935493    0.033026
     27          1           0       -3.377104    1.649532   -0.126360
     28          1           0       -2.059865    1.262257    0.949209
 ---------------------------------------------------------------------

 SCF Done:  E(UwB97XD) =  -466.810769154     A.U. after   17 cycles

 Alpha  occ. eigenvalues --  -10.27301 -10.27293 -10.27119 -10.27117 -10.27080
 Alpha  occ. eigenvalues --  -10.27077 -10.27066 -10.27066 -10.26791 -10.26788
 Alpha  occ. eigenvalues --  -10.26483 -10.26478  -0.93145  -0.92639  -0.83226
 Alpha  occ. eigenvalues --   -0.83129  -0.82871  -0.82701  -0.70383  -0.70213
 Alpha  occ. eigenvalues --   -0.66980  -0.66942  -0.58734  -0.58591  -0.56394
 Alpha  occ. eigenvalues --   -0.55752  -0.52557  -0.51752  -0.49936  -0.49883
 Alpha  occ. eigenvalues --   -0.48882  -0.48417  -0.46275  -0.45875  -0.44119
 Alpha  occ. eigenvalues --   -0.44054  -0.40222  -0.39985  -0.38667  -0.38327
 Alpha  occ. eigenvalues --   -0.38218  -0.38046  -0.28801  -0.26693
 Alpha virt. eigenvalues --    0.04826   0.05990   0.13302   0.14641   0.16436
 Alpha virt. eigenvalues --    0.16853   0.17229   0.18087   0.18406   0.19028
 Alpha virt. eigenvalues --    0.19566   0.19570   0.20092   0.21220   0.22978

  Beta  occ. eigenvalues --  -10.27301 -10.27293 -10.27119 -10.27117 -10.27080
  Beta  occ. eigenvalues --  -10.27077 -10.27066 -10.27066 -10.26791 -10.26788
  Beta  occ. eigenvalues --  -10.26483 -10.26478  -0.93145  -0.92639  -0.83226
  Beta  occ. eigenvalues --   -0.83129  -0.82871  -0.82701  -0.70383  -0.70213
  Beta  occ. eigenvalues --   -0.66980  -0.66942  -0.58734  -0.58591  -0.56394
  Beta  occ. eigenvalues --   -0.55752  -0.52557  -0.51752  -0.49936  -0.49883
  Beta  occ. eigenvalues --   -0.48882  -0.48417  -0.46275  -0.45875  -0.44119
  Beta  occ. eigenvalues --   -0.44054  -0.40222  -0.39985  -0.38667  -0.38327
  Beta  occ. eigenvalues --   -0.38218  -0.38046  -0.28801  -0.26693
  Beta virt. eigenvalues --    0.04826   0.05990   0.13302   0.14641   0.16436
  Beta virt. eigenvalues --    0.16853   0.17229   0.18087   0.18406   0.19028
  Beta virt. eigenvalues --    0.19566   0.19570   0.20092   0.21220   0.22978

 Mulliken charges and spin densities:
               1          2
     1  C   -0.204542   0.000001
     2  C   -0.195745  -0.000000
     3  H    0.148447  -0.000000
     4  H    0.170936  -0.000000
     5  C   -0.192468   0.000000
     6  C   -0.198108   0.000000
     7  H    0.168098  -0.000000
     8  H    0.170893   0.000000
     9  C   -0.214716   0.000001
    10  H    0.131250  -0.000000
    11  H    0.141525  -0.000000
    12  C   -0.159670   0.000000
    13  H    0.152176   0.000000
    14  C   -0.204439  -0.000001
    15  H    0.148440   0.000000
    16  C   -0.191969  -0.000000
    17  H    0.116067   0.000000
    18  H    0.132882   0.000000
    19  C   -0.192956  -0.000000
    20  H    0.166896   0.000000
    21  C   -0.159675  -0.000000
    22  H    0.151807  -0.000000
    23  C   -0.216269  -0.000001
    24  H    0.141869   0.000000
    25  H    0.131332   0.000000
    26  C   -0.194089   0.000000
    27  H    0.133129  -0.000000
    28  H    0.118897  -0.000000
 Sum of Mulliken charges =  -0.00000   0.00000

 Dipole moment (field-independent basis, Debye):
    X=             -0.0009    Y=              0.0049    Z=              0.0018  Tot=              0.0053
 Quadrupole moment (field-independent basis, Debye-Ang):
   XX=            -70.3558   YY=            -68.1209   ZZ=            -75.1774
   XY=             -3.3516   XZ=             -3.8481   YZ=             -1.7339

 Normal termination of Gaussian 16 at Tue Aug  4 00:42:27 2020.
