 Gaussian 16, Revision B.01,
 Gaussian 16:  ES64L-G16RevB.01 20-Dec-2017

 ----------------------------------------------------------------------
 #p uwb97xd guess=mix def2tzvp # scrf=(iefpcm,solvent=Cyclohexane,read)
  nosym 6d 10f
 ----------------------------------------------------------------------

 -----------------------
 endo-2 xp-pcm for eta=3
 -----------------------
 Symbolic Z-matrix:
 Charge =  0 Multiplicity = 1

                          Input orientation:
 ---------------------------------------------------------------------
 Center     Atomic      Atomic             Coordinates (Angstroms)
 Number     Number       Type             X           Y           Z
 ---------------------------------------------------------------------
      1          6           0       -3.127753   -0.441522    0.261122
      2          6           0       -0.719921   -0.248221   -1.219838
      3          1           0       -4.073595   -0.535125    0.782132
      4          1           0        0.234126   -0.164733   -1.725204
      5          6           0        1.160074    1.424218    0.782600
      6          6           0        0.719921    0.248221    1.219838
      7          1           0        0.566933    2.320735    0.917353
      8          1           0       -0.234126    0.164733    1.725204
      9          6           0        1.554591   -0.994289    1.104230
     10          1           0        2.077836   -1.126314    2.059864
     11          1           0        0.911886   -1.867512    0.990956
     12          6           0        2.453641    1.529303    0.107811
     13          1           0        2.853781    2.515042   -0.097470
     14          6           0        3.127753    0.441522   -0.261122
     15          1           0        4.073595    0.535125   -0.782132
     16          6           0        2.577324   -0.940508   -0.036133
     17          1           0        2.121249   -1.285571   -0.972240
     18          1           0        3.390356   -1.639895    0.168128
     19          6           0       -1.160074   -1.424218   -0.782600
     20          1           0       -0.566933   -2.320735   -0.917353
     21          6           0       -2.453641   -1.529303   -0.107811
     22          1           0       -2.853781   -2.515042    0.097470
     23          6           0       -1.554591    0.994289   -1.104230
     24          1           0       -0.911886    1.867512   -0.990956
     25          1           0       -2.077836    1.126314   -2.059864
     26          6           0       -2.577324    0.940508    0.036133
     27          1           0       -3.390356    1.639895   -0.168129
     28          1           0       -2.121249    1.285571    0.972240
 ---------------------------------------------------------------------

 SCF Done:  E(UwB97XD) =  -466.856143577     A.U. after   18 cycles

 Alpha  occ. eigenvalues --  -10.28558 -10.28557 -10.28303 -10.28303 -10.28298
 Alpha  occ. eigenvalues --  -10.28298 -10.28212 -10.28211 -10.28019 -10.28019
 Alpha  occ. eigenvalues --  -10.27566 -10.27565  -0.94269  -0.93625  -0.84377
 Alpha  occ. eigenvalues --   -0.84246  -0.83838  -0.83740  -0.71540  -0.71228
 Alpha  occ. eigenvalues --   -0.68082  -0.67969  -0.59827  -0.59683  -0.57447
 Alpha  occ. eigenvalues --   -0.56681  -0.53720  -0.52851  -0.51029  -0.50998
 Alpha  occ. eigenvalues --   -0.49934  -0.49414  -0.47461  -0.46943  -0.45341
 Alpha  occ. eigenvalues --   -0.45080  -0.41378  -0.41054  -0.39817  -0.39338
 Alpha  occ. eigenvalues --   -0.39269  -0.38993  -0.29894  -0.27519
 Alpha virt. eigenvalues --    0.03349   0.05064   0.10516   0.12285   0.13362
 Alpha virt. eigenvalues --    0.14484   0.14856   0.15675   0.15684   0.15848
 Alpha virt. eigenvalues --    0.16752   0.16917   0.17200   0.18209   0.19960

  Beta  occ. eigenvalues --  -10.28558 -10.28557 -10.28303 -10.28303 -10.28298
  Beta  occ. eigenvalues --  -10.28298 -10.28212 -10.28211 -10.28019 -10.28019
  Beta  occ. eigenvalues --  -10.27566 -10.27565  -0.94269  -0.93625  -0.84377
  Beta  occ. eigenvalues --   -0.84246  -0.83838  -0.83740  -0.71540  -0.71228
  Beta  occ. eigenvalues --   -0.68082  -0.67969  -0.59827  -0.59683  -0.57447
  Beta  occ. eigenvalues --   -0.56681  -0.53720  -0.52851  -0.51029  -0.50998
  Beta  occ. eigenvalues --   -0.49934  -0.49414  -0.47461  -0.46943  -0.45341
  Beta  occ. eigenvalues --   -0.45080  -0.41378  -0.41054  -0.39817  -0.39338
  Beta  occ. eigenvalues --   -0.39269  -0.38993  -0.29894  -0.27519
  Beta virt. eigenvalues --    0.03349   0.05064   0.10516   0.12285   0.13362
  Beta virt. eigenvalues --    0.14484   0.14856   0.15675   0.15684   0.15848
  Beta virt. eigenvalues --    0.16752   0.16917   0.17200   0.18209   0.19960

 Mulliken charges and spin densities:
               1          2
     1  C   -0.209739   0.000000
     2  C   -0.185405  -0.000000
     3  H    0.141896  -0.000000
     4  H    0.161931   0.000000
     5  C   -0.166635   0.000000
     6  C   -0.185249   0.000000
     7  H    0.154118  -0.000000
     8  H    0.162092   0.000000
     9  C   -0.204040   0.000001
    10  H    0.118909  -0.000000
    11  H    0.137723  -0.000000
    12  C   -0.157963  -0.000000
    13  H    0.145455   0.000000
    14  C   -0.209551  -0.000000
    15  H    0.141886   0.000000
    16  C   -0.173812  -0.000000
    17  H    0.111400   0.000000
    18  H    0.125675   0.000000
    19  C   -0.166418   0.000000
    20  H    0.154194   0.000000
    21  C   -0.157800  -0.000000
    22  H    0.145433  -0.000000
    23  C   -0.204089  -0.000001
    24  H    0.137798   0.000000
    25  H    0.118874   0.000000
    26  C   -0.173782   0.000000
    27  H    0.125685  -0.000000
    28  H    0.111417  -0.000000
 Sum of Mulliken charges =  -0.00000   0.00000

 Dipole moment (field-independent basis, Debye):
    X=             -0.0004    Y=              0.0005    Z=              0.0002  Tot=              0.0007
 Quadrupole moment (field-independent basis, Debye-Ang):
   XX=            -72.3663   YY=            -69.8139   ZZ=            -76.9688
   XY=             -3.3099   XZ=             -3.7161   YZ=             -1.7259

 Normal termination of Gaussian 16 at Mon Aug  3 14:49:01 2020.
