 Gaussian 16, Revision B.01,
 Gaussian 16:  ES64L-G16RevB.01 20-Dec-2017

 ----------------------------------------------------------------------
 #p uwb97xd guess=mix def2tzvp # scrf=(iefpcm,solvent=Cyclohexane,read)
  nosym 6d 10f
 ----------------------------------------------------------------------

 -----------------------
 endo-2 xp-pcm for eta=3
 -----------------------
 Symbolic Z-matrix:
 Charge =  0 Multiplicity = 1

                          Input orientation:
 ---------------------------------------------------------------------
 Center     Atomic      Atomic             Coordinates (Angstroms)
 Number     Number       Type             X           Y           Z
 ---------------------------------------------------------------------
      1          6           0       -3.127160   -0.441387    0.265808
      2          6           0       -0.742781   -0.253682   -1.253790
      3          1           0       -4.066590   -0.531634    0.798854
      4          1           0        0.204971   -0.172502   -1.771631
      5          6           0        1.175378    1.427467    0.803019
      6          6           0        0.742781    0.253682    1.253790
      7          1           0        0.582914    2.324068    0.940997
      8          1           0       -0.204971    0.172502    1.771631
      9          6           0        1.574588   -0.989808    1.127258
     10          1           0        2.116105   -1.122154    2.072691
     11          1           0        0.927535   -1.861790    1.025285
     12          6           0        2.460878    1.530950    0.111768
     13          1           0        2.860246    2.516008   -0.098202
     14          6           0        3.127160    0.441387   -0.265808
     15          1           0        4.066590    0.531634   -0.798854
     16          6           0        2.572730   -0.937949   -0.034385
     17          1           0        2.091291   -1.273998   -0.960989
     18          1           0        3.384763   -1.644565    0.147485
     19          6           0       -1.175378   -1.427467   -0.803019
     20          1           0       -0.582914   -2.324068   -0.940997
     21          6           0       -2.460878   -1.530950   -0.111768
     22          1           0       -2.860246   -2.516008    0.098202
     23          6           0       -1.574588    0.989808   -1.127258
     24          1           0       -0.927535    1.861790   -1.025285
     25          1           0       -2.116105    1.122154   -2.072691
     26          6           0       -2.572730    0.937949    0.034385
     27          1           0       -3.384763    1.644565   -0.147485
     28          1           0       -2.091291    1.273998    0.960989
 ---------------------------------------------------------------------

 SCF Done:  E(UwB97XD) =  -466.857541087     A.U. after   18 cycles

 Alpha  occ. eigenvalues --  -10.28537 -10.28537 -10.28312 -10.28311 -10.28308
 Alpha  occ. eigenvalues --  -10.28308 -10.28215 -10.28214 -10.28021 -10.28021
 Alpha  occ. eigenvalues --  -10.27612 -10.27612  -0.94228  -0.93658  -0.84317
 Alpha  occ. eigenvalues --   -0.84211  -0.83879  -0.83748  -0.71484  -0.71248
 Alpha  occ. eigenvalues --   -0.68045  -0.67973  -0.59811  -0.59664  -0.57435
 Alpha  occ. eigenvalues --   -0.56737  -0.53670  -0.52829  -0.51021  -0.50977
 Alpha  occ. eigenvalues --   -0.49950  -0.49463  -0.47419  -0.46959  -0.45260
 Alpha  occ. eigenvalues --   -0.45109  -0.41344  -0.41062  -0.39786  -0.39342
 Alpha  occ. eigenvalues --   -0.39280  -0.39035  -0.29860  -0.27639
 Alpha virt. eigenvalues --    0.03479   0.04916   0.10513   0.12263   0.13347
 Alpha virt. eigenvalues --    0.14442   0.14821   0.15623   0.15677   0.15845
 Alpha virt. eigenvalues --    0.16784   0.16898   0.17166   0.18204   0.19948

  Beta  occ. eigenvalues --  -10.28537 -10.28537 -10.28312 -10.28311 -10.28308
  Beta  occ. eigenvalues --  -10.28308 -10.28215 -10.28214 -10.28021 -10.28021
  Beta  occ. eigenvalues --  -10.27612 -10.27612  -0.94228  -0.93658  -0.84317
  Beta  occ. eigenvalues --   -0.84211  -0.83879  -0.83748  -0.71484  -0.71248
  Beta  occ. eigenvalues --   -0.68045  -0.67973  -0.59811  -0.59664  -0.57435
  Beta  occ. eigenvalues --   -0.56737  -0.53670  -0.52829  -0.51021  -0.50977
  Beta  occ. eigenvalues --   -0.49950  -0.49463  -0.47419  -0.46959  -0.45260
  Beta  occ. eigenvalues --   -0.45109  -0.41344  -0.41062  -0.39786  -0.39342
  Beta  occ. eigenvalues --   -0.39280  -0.39035  -0.29860  -0.27639
  Beta virt. eigenvalues --    0.03479   0.04916   0.10513   0.12263   0.13347
  Beta virt. eigenvalues --    0.14442   0.14821   0.15623   0.15677   0.15845
  Beta virt. eigenvalues --    0.16784   0.16898   0.17166   0.18204   0.19948

 Mulliken charges and spin densities:
               1          2
     1  C   -0.209964   0.000000
     2  C   -0.183246  -0.000000
     3  H    0.142019  -0.000000
     4  H    0.160152   0.000000
     5  C   -0.168314   0.000000
     6  C   -0.183208  -0.000000
     7  H    0.153488  -0.000000
     8  H    0.160455   0.000000
     9  C   -0.199448   0.000001
    10  H    0.118607  -0.000000
    11  H    0.135943  -0.000000
    12  C   -0.157165  -0.000000
    13  H    0.145571   0.000000
    14  C   -0.209769  -0.000000
    15  H    0.142006   0.000000
    16  C   -0.174510  -0.000000
    17  H    0.110851   0.000000
    18  H    0.125501   0.000000
    19  C   -0.168200   0.000000
    20  H    0.153656   0.000000
    21  C   -0.156952  -0.000000
    22  H    0.145551  -0.000000
    23  C   -0.199534  -0.000001
    24  H    0.136011   0.000000
    25  H    0.118564   0.000000
    26  C   -0.174461   0.000000
    27  H    0.125516  -0.000000
    28  H    0.110880  -0.000000
 Sum of Mulliken charges =  -0.00000  -0.00000

 Dipole moment (field-independent basis, Debye):
    X=             -0.0005    Y=              0.0003    Z=              0.0005  Tot=              0.0008
 Quadrupole moment (field-independent basis, Debye-Ang):
   XX=            -72.4439   YY=            -69.8066   ZZ=            -76.8621
   XY=             -3.2939   XZ=             -3.7955   YZ=             -1.7309

 Normal termination of Gaussian 16 at Mon Aug  3 14:38:24 2020.
