 Gaussian 16, Revision B.01,
 Gaussian 16:  ES64L-G16RevB.01 20-Dec-2017

 ----------------------------------------------------------------------
 #p uwb97xd guess=mix def2tzvp # scrf=(iefpcm,solvent=Cyclohexane,read)
  nosym 6d 10f
 ----------------------------------------------------------------------

 -----------------------
 endo-2 xp-pcm for eta=3
 -----------------------
 Symbolic Z-matrix:
 Charge =  0 Multiplicity = 1

                          Input orientation:
 ---------------------------------------------------------------------
 Center     Atomic      Atomic             Coordinates (Angstroms)
 Number     Number       Type             X           Y           Z
 ---------------------------------------------------------------------
      1          6           0       -3.119691   -0.425826    0.248428
      2          6           0       -0.438059   -0.127566   -0.740444
      3          1           0       -4.086791   -0.546863    0.720948
      4          1           0        0.329828   -0.109733   -1.515278
      5          6           0        1.116208    1.432588    0.668787
      6          6           0        0.438059    0.127566    0.740444
      7          1           0        0.567375    2.333262    0.913532
      8          1           0       -0.329828    0.109733    1.515278
      9          6           0        1.453963   -0.997822    0.978822
     10          1           0        1.872621   -0.887919    1.983401
     11          1           0        0.950096   -1.965338    0.950002
     12          6           0        2.395835    1.529761    0.125114
     13          1           0        2.827943    2.513325   -0.022973
     14          6           0        3.119691    0.425826   -0.248428
     15          1           0        4.086791    0.546863   -0.720948
     16          6           0        2.592903   -0.959744   -0.042391
     17          1           0        2.246941   -1.360164   -1.004660
     18          1           0        3.401404   -1.625003    0.272285
     19          6           0       -1.116208   -1.432588   -0.668787
     20          1           0       -0.567375   -2.333262   -0.913532
     21          6           0       -2.395835   -1.529761   -0.125114
     22          1           0       -2.827943   -2.513325    0.022973
     23          6           0       -1.453963    0.997822   -0.978822
     24          1           0       -0.950096    1.965338   -0.950002
     25          1           0       -1.872621    0.887919   -1.983401
     26          6           0       -2.592903    0.959744    0.042391
     27          1           0       -3.401404    1.625003   -0.272284
     28          1           0       -2.246941    1.360164    1.004660
 ---------------------------------------------------------------------

 SCF Done:  E(UwB97XD) =  -466.829560004     A.U. after   14 cycles

 Alpha  occ. eigenvalues --  -10.29814 -10.29631 -10.28818 -10.28560 -10.28447
 Alpha  occ. eigenvalues --  -10.28402 -10.28207 -10.28135 -10.27976 -10.27956
 Alpha  occ. eigenvalues --  -10.27889 -10.27837  -0.95031  -0.92800  -0.85334
 Alpha  occ. eigenvalues --   -0.84532  -0.83604  -0.81422  -0.71072  -0.70425
 Alpha  occ. eigenvalues --   -0.69425  -0.67693  -0.59974  -0.59171  -0.58588
 Alpha  occ. eigenvalues --   -0.56323  -0.53509  -0.52768  -0.50729  -0.49310
 Alpha  occ. eigenvalues --   -0.48878  -0.48245  -0.48017  -0.47311  -0.46411
 Alpha  occ. eigenvalues --   -0.44758  -0.41532  -0.40866  -0.39968  -0.39393
 Alpha  occ. eigenvalues --   -0.38249  -0.37143  -0.34002  -0.25031
 Alpha virt. eigenvalues --    0.00012   0.10098   0.10514   0.12486   0.13128
 Alpha virt. eigenvalues --    0.14070   0.14634   0.15434   0.16041   0.16301
 Alpha virt. eigenvalues --    0.16896   0.17075   0.18365   0.19963   0.20388

  Beta  occ. eigenvalues --  -10.29814 -10.29631 -10.28818 -10.28560 -10.28447
  Beta  occ. eigenvalues --  -10.28403 -10.28207 -10.28135 -10.27977 -10.27955
  Beta  occ. eigenvalues --  -10.27889 -10.27837  -0.95031  -0.92800  -0.85334
  Beta  occ. eigenvalues --   -0.84532  -0.83603  -0.81422  -0.71072  -0.70425
  Beta  occ. eigenvalues --   -0.69425  -0.67693  -0.59974  -0.59171  -0.58588
  Beta  occ. eigenvalues --   -0.56323  -0.53509  -0.52768  -0.50729  -0.49309
  Beta  occ. eigenvalues --   -0.48878  -0.48245  -0.48017  -0.47311  -0.46411
  Beta  occ. eigenvalues --   -0.44758  -0.41532  -0.40866  -0.39968  -0.39393
  Beta  occ. eigenvalues --   -0.38249  -0.37143  -0.34002  -0.25031
  Beta virt. eigenvalues --    0.00011   0.10098   0.10514   0.12486   0.13127
  Beta virt. eigenvalues --    0.14070   0.14634   0.15434   0.16041   0.16301
  Beta virt. eigenvalues --    0.16896   0.17075   0.18366   0.19963   0.20389

 Mulliken charges and spin densities:
               1          2
     1  C   -0.200237  -0.563688
     2  C   -0.127650   0.089164
     3  H    0.144936   0.023619
     4  H    0.136443  -0.009308
     5  C   -0.185800   0.614905
     6  C   -0.127633  -0.089167
     7  H    0.157482  -0.025446
     8  H    0.136386   0.009309
     9  C   -0.218327   0.011192
    10  H    0.119155  -0.001094
    11  H    0.134950  -0.001280
    12  C   -0.167336  -0.224924
    13  H    0.142481   0.009118
    14  C   -0.200280   0.563687
    15  H    0.144938  -0.023619
    16  C   -0.180335  -0.035243
    17  H    0.116882   0.031424
    18  H    0.127439   0.013391
    19  C   -0.185764  -0.614908
    20  H    0.157479   0.025446
    21  C   -0.167367   0.224925
    22  H    0.142489  -0.009118
    23  C   -0.218333  -0.011192
    24  H    0.134896   0.001282
    25  H    0.119176   0.001094
    26  C   -0.180399   0.035243
    27  H    0.127434  -0.013390
    28  H    0.116894  -0.031422
 Sum of Mulliken charges =  -0.00000  -0.00000

 Dipole moment (field-independent basis, Debye):
    X=              0.0002    Y=             -0.0004    Z=              0.0002  Tot=              0.0005
 Quadrupole moment (field-independent basis, Debye-Ang):
   XX=            -72.1737   YY=            -71.1782   ZZ=            -76.3188
   XY=             -2.6307   XZ=             -2.9963   YZ=             -0.3489

 Normal termination of Gaussian 16 at Mon Aug  3 16:49:23 2020.
