 Gaussian 16, Revision B.01,
 Gaussian 16:  ES64L-G16RevB.01 20-Dec-2017

 ----------------------------------------------------------------------
 #p uwb97xd guess=mix def2tzvp # scrf=(iefpcm,solvent=Cyclohexane,read)
  nosym 6d 10f
 ----------------------------------------------------------------------

 -----------------------
 endo-2 xp-pcm for eta=3
 -----------------------
 Symbolic Z-matrix:
 Charge =  0 Multiplicity = 1

                          Input orientation:
 ---------------------------------------------------------------------
 Center     Atomic      Atomic             Coordinates (Angstroms)
 Number     Number       Type             X           Y           Z
 ---------------------------------------------------------------------
      1          6           0       -3.125400   -0.440005    0.252083
      2          6           0       -0.659840   -0.233754   -1.126379
      3          1           0       -4.084200   -0.543289    0.746935
      4          1           0        0.308739   -0.142233   -1.599972
      5          6           0        1.122664    1.417123    0.734560
      6          6           0        0.659840    0.233754    1.126379
      7          1           0        0.530286    2.314651    0.862502
      8          1           0       -0.308739    0.142233    1.599972
      9          6           0        1.510582   -1.000676    1.048954
     10          1           0        1.998188   -1.106214    2.026331
     11          1           0        0.888300   -1.886305    0.928530
     12          6           0        2.436831    1.523333    0.105247
     13          1           0        2.842008    2.510246   -0.084086
     14          6           0        3.125400    0.440005   -0.252083
     15          1           0        4.084200    0.543289   -0.746935
     16          6           0        2.585867   -0.948552   -0.042215
     17          1           0        2.191291   -1.318993   -0.996443
     18          1           0        3.399102   -1.628770    0.218906
     19          6           0       -1.122664   -1.417123   -0.734560
     20          1           0       -0.530286   -2.314651   -0.862502
     21          6           0       -2.436831   -1.523333   -0.105247
     22          1           0       -2.842008   -2.510246    0.084086
     23          6           0       -1.510582    1.000676   -1.048954
     24          1           0       -0.888300    1.886305   -0.928530
     25          1           0       -1.998187    1.106214   -2.026331
     26          6           0       -2.585867    0.948552    0.042215
     27          1           0       -3.399102    1.628770   -0.218906
     28          1           0       -2.191291    1.318993    0.996443
 ---------------------------------------------------------------------

 SCF Done:  E(UwB97XD) =  -466.850323652     A.U. after   18 cycles

 Alpha  occ. eigenvalues --  -10.28609 -10.28608 -10.28286 -10.28285 -10.28261
 Alpha  occ. eigenvalues --  -10.28260 -10.28228 -10.28227 -10.28020 -10.28019
 Alpha  occ. eigenvalues --  -10.27413 -10.27412  -0.94449  -0.93557  -0.84584
 Alpha  occ. eigenvalues --   -0.84349  -0.83720  -0.83687  -0.71679  -0.71145
 Alpha  occ. eigenvalues --   -0.68228  -0.67937  -0.59894  -0.59776  -0.57554
 Alpha  occ. eigenvalues --   -0.56565  -0.53783  -0.52936  -0.51054  -0.51017
 Alpha  occ. eigenvalues --   -0.49913  -0.49252  -0.47587  -0.46927  -0.45622
 Alpha  occ. eigenvalues --   -0.44995  -0.41471  -0.41028  -0.39906  -0.39294
 Alpha  occ. eigenvalues --   -0.39241  -0.38844  -0.30068  -0.27082
 Alpha virt. eigenvalues --    0.02904   0.05601   0.10517   0.12336   0.13415
 Alpha virt. eigenvalues --    0.14559   0.14896   0.15707   0.15826   0.15855
 Alpha virt. eigenvalues --    0.16643   0.16981   0.17338   0.18240   0.19973

  Beta  occ. eigenvalues --  -10.28609 -10.28608 -10.28286 -10.28285 -10.28261
  Beta  occ. eigenvalues --  -10.28260 -10.28228 -10.28227 -10.28020 -10.28019
  Beta  occ. eigenvalues --  -10.27413 -10.27412  -0.94449  -0.93557  -0.84584
  Beta  occ. eigenvalues --   -0.84349  -0.83720  -0.83687  -0.71679  -0.71145
  Beta  occ. eigenvalues --   -0.68228  -0.67937  -0.59894  -0.59776  -0.57554
  Beta  occ. eigenvalues --   -0.56565  -0.53783  -0.52936  -0.51054  -0.51017
  Beta  occ. eigenvalues --   -0.49913  -0.49252  -0.47587  -0.46927  -0.45622
  Beta  occ. eigenvalues --   -0.44995  -0.41471  -0.41028  -0.39906  -0.39294
  Beta  occ. eigenvalues --   -0.39241  -0.38844  -0.30068  -0.27082
  Beta virt. eigenvalues --    0.02904   0.05601   0.10517   0.12336   0.13415
  Beta virt. eigenvalues --    0.14559   0.14896   0.15707   0.15826   0.15855
  Beta virt. eigenvalues --    0.16643   0.16981   0.17338   0.18240   0.19973

 Mulliken charges and spin densities:
               1          2
     1  C   -0.209359  -0.000000
     2  C   -0.191592   0.000000
     3  H    0.141582   0.000000
     4  H    0.167596  -0.000000
     5  C   -0.158025   0.000000
     6  C   -0.191449  -0.000000
     7  H    0.154073   0.000000
     8  H    0.167479   0.000000
     9  C   -0.213025  -0.000001
    10  H    0.119710   0.000000
    11  H    0.141504   0.000000
    12  C   -0.163717  -0.000000
    13  H    0.144969  -0.000000
    14  C   -0.209396   0.000000
    15  H    0.141590  -0.000000
    16  C   -0.172851   0.000000
    17  H    0.113040  -0.000000
    18  H    0.126080  -0.000000
    19  C   -0.158002  -0.000000
    20  H    0.154153  -0.000000
    21  C   -0.163700   0.000000
    22  H    0.144969   0.000000
    23  C   -0.213077   0.000001
    24  H    0.141545  -0.000000
    25  H    0.119677  -0.000000
    26  C   -0.172893  -0.000000
    27  H    0.126088   0.000000
    28  H    0.113031   0.000000
 Sum of Mulliken charges =  -0.00000  -0.00000

 Dipole moment (field-independent basis, Debye):
    X=              0.0002    Y=             -0.0005    Z=             -0.0001  Tot=              0.0005
 Quadrupole moment (field-independent basis, Debye-Ang):
   XX=            -72.2295   YY=            -69.8427   ZZ=            -77.2004
   XY=             -3.3348   XZ=             -3.4834   YZ=             -1.6594

 Normal termination of Gaussian 16 at Mon Aug  3 15:15:53 2020.
