 Gaussian 16, Revision B.01,
 Gaussian 16:  ES64L-G16RevB.01 20-Dec-2017

 ----------------------------------------------------------------------
 #p uwb97xd guess=mix def2tzvp # scrf=(iefpcm,solvent=Cyclohexane,read)
  nosym 6d 10f
 ----------------------------------------------------------------------

 -----------------------
 endo-2 xp-pcm for eta=3
 -----------------------
 Symbolic Z-matrix:
 Charge =  0 Multiplicity = 1

                          Input orientation:
 ---------------------------------------------------------------------
 Center     Atomic      Atomic             Coordinates (Angstroms)
 Number     Number       Type             X           Y           Z
 ---------------------------------------------------------------------
      1          6           0       -3.122592   -0.438388    0.249109
      2          6           0       -0.621801   -0.222716   -1.060943
      3          1           0       -4.085324   -0.547212    0.735016
      4          1           0        0.349284   -0.128633   -1.527138
      5          6           0        1.104299    1.412726    0.711533
      6          6           0        0.621801    0.222716    1.060943
      7          1           0        0.516259    2.312051    0.844298
      8          1           0       -0.349284    0.128633    1.527138
      9          6           0        1.489396   -1.000996    1.019772
     10          1           0        1.961797   -1.065850    2.008075
     11          1           0        0.889010   -1.902931    0.914465
     12          6           0        2.428355    1.519137    0.107940
     13          1           0        2.836160    2.506797   -0.071809
     14          6           0        3.122592    0.438388   -0.249109
     15          1           0        4.085324    0.547212   -0.735016
     16          6           0        2.589439   -0.953530   -0.045302
     17          1           0        2.226867   -1.339383   -1.006111
     18          1           0        3.400958   -1.623074    0.247309
     19          6           0       -1.104299   -1.412726   -0.711533
     20          1           0       -0.516259   -2.312051   -0.844298
     21          6           0       -2.428355   -1.519137   -0.107940
     22          1           0       -2.836160   -2.506797    0.071809
     23          6           0       -1.489396    1.000996   -1.019772
     24          1           0       -0.889010    1.902931   -0.914465
     25          1           0       -1.961797    1.065850   -2.008075
     26          6           0       -2.589439    0.953530    0.045302
     27          1           0       -3.400958    1.623074   -0.247309
     28          1           0       -2.226867    1.339383    1.006111
 ---------------------------------------------------------------------

 SCF Done:  E(UwB97XD) =  -466.844427101     A.U. after   18 cycles

 Alpha  occ. eigenvalues --  -10.28629 -10.28628 -10.28299 -10.28298 -10.28271
 Alpha  occ. eigenvalues --  -10.28270 -10.28224 -10.28223 -10.28019 -10.28018
 Alpha  occ. eigenvalues --  -10.27289 -10.27288  -0.94629  -0.93535  -0.84762
 Alpha  occ. eigenvalues --   -0.84406  -0.83706  -0.83568  -0.71738  -0.71067
 Alpha  occ. eigenvalues --   -0.68381  -0.67898  -0.59938  -0.59885  -0.57683
 Alpha  occ. eigenvalues --   -0.56495  -0.53734  -0.53024  -0.51098  -0.50973
 Alpha  occ. eigenvalues --   -0.49914  -0.49136  -0.47672  -0.46957  -0.45843
 Alpha  occ. eigenvalues --   -0.44915  -0.41529  -0.41025  -0.39959  -0.39249
 Alpha  occ. eigenvalues --   -0.39232  -0.38704  -0.30273  -0.26624
 Alpha virt. eigenvalues --    0.02459   0.06116   0.10502   0.12362   0.13447
 Alpha virt. eigenvalues --    0.14564   0.14875   0.15723   0.15779   0.16021
 Alpha virt. eigenvalues --    0.16575   0.17110   0.17425   0.18311   0.19957

  Beta  occ. eigenvalues --  -10.28629 -10.28628 -10.28299 -10.28298 -10.28271
  Beta  occ. eigenvalues --  -10.28270 -10.28224 -10.28223 -10.28019 -10.28018
  Beta  occ. eigenvalues --  -10.27289 -10.27288  -0.94629  -0.93535  -0.84762
  Beta  occ. eigenvalues --   -0.84406  -0.83706  -0.83568  -0.71738  -0.71067
  Beta  occ. eigenvalues --   -0.68381  -0.67898  -0.59938  -0.59885  -0.57683
  Beta  occ. eigenvalues --   -0.56495  -0.53734  -0.53024  -0.51098  -0.50973
  Beta  occ. eigenvalues --   -0.49914  -0.49136  -0.47672  -0.46957  -0.45843
  Beta  occ. eigenvalues --   -0.44915  -0.41529  -0.41025  -0.39959  -0.39249
  Beta  occ. eigenvalues --   -0.39232  -0.38704  -0.30273  -0.26624
  Beta virt. eigenvalues --    0.02459   0.06116   0.10502   0.12362   0.13447
  Beta virt. eigenvalues --    0.14564   0.14875   0.15723   0.15779   0.16021
  Beta virt. eigenvalues --    0.16575   0.17110   0.17425   0.18311   0.19957

 Mulliken charges and spin densities:
               1          2
     1  C   -0.209346  -0.000000
     2  C   -0.196873   0.000000
     3  H    0.141524  -0.000000
     4  H    0.171745   0.000000
     5  C   -0.151299   0.000000
     6  C   -0.196942   0.000000
     7  H    0.153479   0.000000
     8  H    0.171720  -0.000000
     9  C   -0.212930   0.000001
    10  H    0.120224  -0.000000
    11  H    0.143335  -0.000000
    12  C   -0.169788   0.000000
    13  H    0.144629  -0.000000
    14  C   -0.209417  -0.000000
    15  H    0.141536   0.000000
    16  C   -0.175591  -0.000000
    17  H    0.114611   0.000000
    18  H    0.126409   0.000000
    19  C   -0.151494  -0.000000
    20  H    0.153564  -0.000000
    21  C   -0.169830  -0.000000
    22  H    0.144654   0.000000
    23  C   -0.212929  -0.000001
    24  H    0.143377   0.000000
    25  H    0.120224   0.000000
    26  C   -0.175606   0.000001
    27  H    0.126418  -0.000000
    28  H    0.114596  -0.000000
 Sum of Mulliken charges =  -0.00000   0.00000

 Dipole moment (field-independent basis, Debye):
    X=              0.0003    Y=             -0.0009    Z=             -0.0001  Tot=              0.0009
 Quadrupole moment (field-independent basis, Debye-Ang):
   XX=            -72.2470   YY=            -69.8875   ZZ=            -77.2377
   XY=             -3.3405   XZ=             -3.3483   YZ=             -1.5669

 Normal termination of Gaussian 16 at Mon Aug  3 15:32:08 2020.
