 Gaussian 16, Revision B.01,
 Gaussian 16:  ES64L-G16RevB.01 20-Dec-2017

 ----------------------------------------------------------------------
 #p uwb97xd guess=mix def2tzvp # scrf=(iefpcm,solvent=Cyclohexane,read)
  nosym 6d 10f
 ----------------------------------------------------------------------

 -----------------------
 endo-2 xp-pcm for eta=3
 -----------------------
 Symbolic Z-matrix:
 Charge =  0 Multiplicity = 1

                          Input orientation:
 ---------------------------------------------------------------------
 Center     Atomic      Atomic             Coordinates (Angstroms)
 Number     Number       Type             X           Y           Z
 ---------------------------------------------------------------------
      1          6           0       -3.119127   -0.424214    0.248750
      2          6           0       -0.411716   -0.117621   -0.690842
      3          1           0       -4.089584   -0.546101    0.713998
      4          1           0        0.331104   -0.106248   -1.492216
      5          6           0        1.113220    1.433745    0.656146
      6          6           0        0.411716    0.117621    0.690842
      7          1           0        0.575541    2.332289    0.931979
      8          1           0       -0.331104    0.106248    1.492216
      9          6           0        1.443013   -0.993893    0.965601
     10          1           0        1.846597   -0.847218    1.971019
     11          1           0        0.957769   -1.971415    0.956603
     12          6           0        2.393256    1.531202    0.129580
     13          1           0        2.834891    2.513727    0.002918
     14          6           0        3.119127    0.424214   -0.248750
     15          1           0        4.089584    0.546101   -0.713998
     16          6           0        2.592435   -0.960873   -0.043075
     17          1           0        2.254014   -1.365839   -1.006400
     18          1           0        3.399024   -1.624515    0.280295
     19          6           0       -1.113220   -1.433745   -0.656146
     20          1           0       -0.575541   -2.332289   -0.931979
     21          6           0       -2.393256   -1.531202   -0.129580
     22          1           0       -2.834891   -2.513727   -0.002918
     23          6           0       -1.443013    0.993893   -0.965601
     24          1           0       -0.957769    1.971415   -0.956603
     25          1           0       -1.846597    0.847218   -1.971019
     26          6           0       -2.592435    0.960873    0.043075
     27          1           0       -3.399023    1.624515   -0.280295
     28          1           0       -2.254014    1.365839    1.006400
 ---------------------------------------------------------------------

 SCF Done:  E(UwB97XD) =  -466.835486704     A.U. after   14 cycles

 Alpha  occ. eigenvalues --  -10.29417 -10.29281 -10.28861 -10.28592 -10.28430
 Alpha  occ. eigenvalues --  -10.28385 -10.28218 -10.28148 -10.27914 -10.27899
 Alpha  occ. eigenvalues --  -10.27893 -10.27864  -0.95295  -0.92701  -0.85738
 Alpha  occ. eigenvalues --   -0.84550  -0.83570  -0.81079  -0.71327  -0.70628
 Alpha  occ. eigenvalues --   -0.69234  -0.67570  -0.60082  -0.59255  -0.58697
 Alpha  occ. eigenvalues --   -0.56256  -0.53604  -0.52638  -0.50829  -0.49082
 Alpha  occ. eigenvalues --   -0.48892  -0.48497  -0.48219  -0.47349  -0.46082
 Alpha  occ. eigenvalues --   -0.44753  -0.41479  -0.40911  -0.40062  -0.39052
 Alpha  occ. eigenvalues --   -0.37814  -0.37265  -0.34604  -0.25237
 Alpha virt. eigenvalues --    0.00129   0.10407   0.10557   0.12383   0.13156
 Alpha virt. eigenvalues --    0.14053   0.14710   0.15413   0.16051   0.16304
 Alpha virt. eigenvalues --    0.16991   0.17120   0.18389   0.19977   0.20229

  Beta  occ. eigenvalues --  -10.29417 -10.29281 -10.28861 -10.28592 -10.28431
  Beta  occ. eigenvalues --  -10.28384 -10.28218 -10.28148 -10.27912 -10.27898
  Beta  occ. eigenvalues --  -10.27894 -10.27864  -0.95294  -0.92701  -0.85738
  Beta  occ. eigenvalues --   -0.84550  -0.83571  -0.81079  -0.71327  -0.70628
  Beta  occ. eigenvalues --   -0.69234  -0.67570  -0.60082  -0.59255  -0.58697
  Beta  occ. eigenvalues --   -0.56256  -0.53604  -0.52638  -0.50829  -0.49082
  Beta  occ. eigenvalues --   -0.48893  -0.48497  -0.48219  -0.47349  -0.46082
  Beta  occ. eigenvalues --   -0.44753  -0.41479  -0.40911  -0.40061  -0.39052
  Beta  occ. eigenvalues --   -0.37814  -0.37265  -0.34604  -0.25237
  Beta virt. eigenvalues --    0.00129   0.10407   0.10557   0.12383   0.13156
  Beta virt. eigenvalues --    0.14053   0.14711   0.15413   0.16051   0.16304
  Beta virt. eigenvalues --    0.16991   0.17120   0.18389   0.19977   0.20229

 Mulliken charges and spin densities:
               1          2
     1  C   -0.198363  -0.589987
     2  C   -0.111781   0.059178
     3  H    0.144967   0.024742
     4  H    0.131706  -0.008334
     5  C   -0.200203   0.621250
     6  C   -0.111859  -0.059181
     7  H    0.158598  -0.025784
     8  H    0.131697   0.008334
     9  C   -0.219758   0.011423
    10  H    0.119157  -0.000362
    11  H    0.134796  -0.000662
    12  C   -0.163711  -0.226401
    13  H    0.142070   0.009489
    14  C   -0.198426   0.589983
    15  H    0.144977  -0.024742
    16  C   -0.181838  -0.036609
    17  H    0.116698   0.032951
    18  H    0.127816   0.014123
    19  C   -0.200267  -0.621249
    20  H    0.158565   0.025785
    21  C   -0.163872   0.226405
    22  H    0.142104  -0.009489
    23  C   -0.219777  -0.011423
    24  H    0.134770   0.000663
    25  H    0.119221   0.000362
    26  C   -0.181916   0.036609
    27  H    0.127818  -0.014123
    28  H    0.116810  -0.032949
 Sum of Mulliken charges =  -0.00000   0.00000

 Dipole moment (field-independent basis, Debye):
    X=             -0.0004    Y=              0.0003    Z=              0.0003  Tot=              0.0006
 Quadrupole moment (field-independent basis, Debye-Ang):
   XX=            -72.0337   YY=            -71.2195   ZZ=            -76.3065
   XY=             -2.4743   XZ=             -2.8442   YZ=             -0.1168

 Normal termination of Gaussian 16 at Mon Aug  3 16:58:01 2020.
