 Gaussian 16, Revision B.01,
 Gaussian 16:  ES64L-G16RevB.01 20-Dec-2017

 ----------------------------------------------------------------------
 #p uwb97xd guess=mix def2tzvp # scrf=(iefpcm,solvent=Cyclohexane,read)
  nosym 6d 10f
 ----------------------------------------------------------------------

 -----------------------
 endo-2 xp-pcm for eta=3
 -----------------------
 Symbolic Z-matrix:
 Charge =  0 Multiplicity = 1

                          Input orientation:
 ---------------------------------------------------------------------
 Center     Atomic      Atomic             Coordinates (Angstroms)
 Number     Number       Type             X           Y           Z
 ---------------------------------------------------------------------
      1          6           0       -3.118154   -0.434970    0.246911
      2          6           0       -0.525244   -0.179089   -0.881108
      3          1           0       -4.082876   -0.549545    0.727275
      4          1           0        0.369421   -0.116466   -1.488305
      5          6           0        1.095749    1.409502    0.684953
      6          6           0        0.525244    0.179089    0.881108
      7          1           0        0.534376    2.315268    0.877539
      8          1           0       -0.369421    0.116466    1.488305
      9          6           0        1.464053   -0.999907    0.987811
     10          1           0        1.902396   -0.948136    1.990906
     11          1           0        0.922907   -1.944294    0.931362
     12          6           0        2.412752    1.518768    0.114990
     13          1           0        2.825512    2.507319   -0.049863
     14          6           0        3.118154    0.434970   -0.246911
     15          1           0        4.082876    0.549545   -0.727275
     16          6           0        2.591960   -0.958481   -0.043904
     17          1           0        2.251216   -1.356631   -1.007828
     18          1           0        3.400803   -1.621376    0.271761
     19          6           0       -1.095749   -1.409502   -0.684954
     20          1           0       -0.534376   -2.315268   -0.877539
     21          6           0       -2.412752   -1.518768   -0.114990
     22          1           0       -2.825512   -2.507319    0.049863
     23          6           0       -1.464053    0.999907   -0.987811
     24          1           0       -0.922907    1.944294   -0.931362
     25          1           0       -1.902396    0.948136   -1.990906
     26          6           0       -2.591960    0.958481    0.043904
     27          1           0       -3.400803    1.621376   -0.271761
     28          1           0       -2.251216    1.356631    1.007828
 ---------------------------------------------------------------------

 SCF Done:  E(UwB97XD) =  -466.818355020     A.U. after   23 cycles

 Alpha  occ. eigenvalues --  -10.29424 -10.29250 -10.28585 -10.28573 -10.28422
 Alpha  occ. eigenvalues --  -10.28274 -10.28221 -10.28209 -10.28074 -10.27989
 Alpha  occ. eigenvalues --  -10.27632 -10.27410  -0.95028  -0.93358  -0.85146
 Alpha  occ. eigenvalues --   -0.84453  -0.83672  -0.82897  -0.71499  -0.70567
 Alpha  occ. eigenvalues --   -0.69179  -0.67887  -0.60127  -0.59727  -0.58135
 Alpha  occ. eigenvalues --   -0.56389  -0.53342  -0.53264  -0.51046  -0.50392
 Alpha  occ. eigenvalues --   -0.49645  -0.48571  -0.47880  -0.47287  -0.46456
 Alpha  occ. eigenvalues --   -0.44759  -0.41530  -0.41089  -0.39913  -0.39555
 Alpha  occ. eigenvalues --   -0.39123  -0.37905  -0.31675  -0.24001
 Alpha virt. eigenvalues --   -0.00533   0.08172   0.10433   0.12450   0.13245
 Alpha virt. eigenvalues --    0.14373   0.14476   0.15475   0.15933   0.16339
 Alpha virt. eigenvalues --    0.16445   0.17241   0.18030   0.19226   0.20019

  Beta  occ. eigenvalues --  -10.29424 -10.29250 -10.28585 -10.28573 -10.28423
  Beta  occ. eigenvalues --  -10.28274 -10.28221 -10.28208 -10.28073 -10.27990
  Beta  occ. eigenvalues --  -10.27633 -10.27410  -0.95028  -0.93358  -0.85146
  Beta  occ. eigenvalues --   -0.84453  -0.83672  -0.82897  -0.71499  -0.70567
  Beta  occ. eigenvalues --   -0.69179  -0.67886  -0.60127  -0.59727  -0.58135
  Beta  occ. eigenvalues --   -0.56389  -0.53342  -0.53264  -0.51046  -0.50392
  Beta  occ. eigenvalues --   -0.49645  -0.48571  -0.47880  -0.47287  -0.46456
  Beta  occ. eigenvalues --   -0.44759  -0.41530  -0.41088  -0.39913  -0.39555
  Beta  occ. eigenvalues --   -0.39123  -0.37905  -0.31675  -0.24001
  Beta virt. eigenvalues --   -0.00533   0.08172   0.10433   0.12450   0.13245
  Beta virt. eigenvalues --    0.14373   0.14476   0.15475   0.15933   0.16339
  Beta virt. eigenvalues --    0.16445   0.17241   0.18030   0.19226   0.20019

 Mulliken charges and spin densities:
               1          2
     1  C   -0.211944   0.132596
     2  C   -0.190444  -0.117871
     3  H    0.142767  -0.005605
     4  H    0.165146   0.005934
     5  C   -0.147499  -0.185861
     6  C   -0.190509   0.117873
     7  H    0.152847   0.007800
     8  H    0.165147  -0.005934
     9  C   -0.201755  -0.004790
    10  H    0.120776   0.004061
    11  H    0.139585   0.001762
    12  C   -0.177304   0.072818
    13  H    0.144572  -0.002869
    14  C   -0.212035  -0.132598
    15  H    0.142771   0.005606
    16  C   -0.181870   0.009328
    17  H    0.117293  -0.006992
    18  H    0.127977  -0.003236
    19  C   -0.147639   0.185861
    20  H    0.152861  -0.007800
    21  C   -0.177417  -0.072819
    22  H    0.144592   0.002869
    23  C   -0.201720   0.004790
    24  H    0.139581  -0.001762
    25  H    0.120823  -0.004061
    26  C   -0.181908  -0.009328
    27  H    0.127988   0.003236
    28  H    0.117316   0.006992
 Sum of Mulliken charges =  -0.00000  -0.00000

 Dipole moment (field-independent basis, Debye):
    X=              0.0002    Y=             -0.0005    Z=             -0.0000  Tot=              0.0006
 Quadrupole moment (field-independent basis, Debye-Ang):
   XX=            -72.5992   YY=            -70.3000   ZZ=            -76.8340
   XY=             -3.1678   XZ=             -3.1414   YZ=             -1.0310

 Normal termination of Gaussian 16 at Mon Aug  3 16:13:58 2020.
