 Gaussian 16, Revision B.01,

 ----------------------------------------------------------------------
 #p uwb97xd guess=mix def2tzvp # scrf=(iefpcm,solvent=Cyclohexane,read)
  nosym 6d 10f
 ----------------------------------------------------------------------

 -----------------------
 endo-2 xp-pcm for eta=3
 -----------------------
 Symbolic Z-matrix:
 Charge =  0 Multiplicity = 1

 SCF Done:  E(UwB97XD) =  -466.851274010     A.U. after   17 cycles
 Normal termination of Gaussian 16 at Mon Aug  3 19:12:10 2020.

 ----------------------------------------------------------------------
 #p uwb97xd guess=mix def2tzvp # scrf=(iefpcm,solvent=Cyclohexane,read)
  nosym 6d 10f
 ----------------------------------------------------------------------

 -----------------------
 endo-2 xp-pcm for eta=3
 -----------------------
 Symbolic Z-matrix:
 Charge =  0 Multiplicity = 1

 SCF Done:  E(UwB97XD) =  -466.847571781     A.U. after   17 cycles
 Normal termination of Gaussian 16 at Mon Aug  3 19:17:28 2020.

 ----------------------------------------------------------------------
 #p uwb97xd guess=mix def2tzvp # scrf=(iefpcm,solvent=Cyclohexane,read)
  nosym 6d 10f
 ----------------------------------------------------------------------

 -----------------------
 endo-2 xp-pcm for eta=3
 -----------------------
 Symbolic Z-matrix:
 Charge =  0 Multiplicity = 1

 SCF Done:  E(UwB97XD) =  -466.843566174     A.U. after   17 cycles
 Normal termination of Gaussian 16 at Mon Aug  3 19:22:43 2020.

 ----------------------------------------------------------------------
 #p uwb97xd guess=mix def2tzvp # scrf=(iefpcm,solvent=Cyclohexane,read)
  nosym 6d 10f
 ----------------------------------------------------------------------

 -----------------------
 endo-2 xp-pcm for eta=3
 -----------------------
 Symbolic Z-matrix:
 Charge =  0 Multiplicity = 1

 SCF Done:  E(UwB97XD) =  -466.835666744     A.U. after   17 cycles
 Normal termination of Gaussian 16 at Mon Aug  3 19:27:58 2020.

 ----------------------------------------------------------------------
 #p uwb97xd guess=mix def2tzvp # scrf=(iefpcm,solvent=Cyclohexane,read)
  nosym 6d 10f
 ----------------------------------------------------------------------

 -----------------------
 endo-2 xp-pcm for eta=3
 -----------------------
 Symbolic Z-matrix:
 Charge =  0 Multiplicity = 1

 SCF Done:  E(UwB97XD) =  -466.826710232     A.U. after   17 cycles
 Normal termination of Gaussian 16 at Mon Aug  3 19:33:14 2020.

 ----------------------------------------------------------------------
 #p uwb97xd guess=mix def2tzvp # scrf=(iefpcm,solvent=Cyclohexane,read)
  nosym 6d 10f
 ----------------------------------------------------------------------

 -----------------------
 endo-2 xp-pcm for eta=3
 -----------------------
 Symbolic Z-matrix:
 Charge =  0 Multiplicity = 1

 SCF Done:  E(UwB97XD) =  -466.846341812     A.U. after   17 cycles
 Normal termination of Gaussian 16 at Mon Aug  3 19:38:32 2020.
 Gaussian 16:  ES64L-G16RevB.01 20-Dec-2017

                          Input orientation:
 ---------------------------------------------------------------------
 Center     Atomic      Atomic             Coordinates (Angstroms)
 Number     Number       Type             X           Y           Z
 ---------------------------------------------------------------------
      1          6           0       -3.106560   -0.437378    0.291938
      2          6           0       -0.848443   -0.283188   -1.412362
      3          1           0       -4.009580   -0.509623    0.886930
      4          1           0        0.059937   -0.215575   -1.999027
      5          6           0        1.250446    1.448137    0.910401
      6          6           0        0.848443    0.283188    1.412362
      7          1           0        0.670918    2.349204    1.073365
      8          1           0       -0.059937    0.215575    1.999027
      9          6           0        1.671088   -0.961349    1.237510
     10          1           0        2.316912   -1.067273    2.119278
     11          1           0        1.024124   -1.840049    1.224471
     12          6           0        2.491494    1.537477    0.138807
     13          1           0        2.894509    2.517243   -0.088123
     14          6           0        3.106560    0.437378   -0.291938
     15          1           0        4.009580    0.509623   -0.886930
     16          6           0        2.527393   -0.925952   -0.029998
     17          1           0        1.916886   -1.211409   -0.895423
     18          1           0        3.321807   -1.671334    0.037592
     19          6           0       -1.250446   -1.448137   -0.910401
     20          1           0       -0.670918   -2.349204   -1.073365
     21          6           0       -2.491494   -1.537477   -0.138807
     22          1           0       -2.894509   -2.517243    0.088123
     23          6           0       -1.671088    0.961349   -1.237510
     24          1           0       -1.024124    1.840049   -1.224471
     25          1           0       -2.316912    1.067273   -2.119278
     26          6           0       -2.527393    0.925952    0.029998
     27          1           0       -3.321807    1.671334   -0.037592
     28          1           0       -1.916886    1.211409    0.895423
 ---------------------------------------------------------------------

 SCF Done:  E(UwB97XD) =  -466.812687569     A.U. after   17 cycles

 Alpha  occ. eigenvalues --  -10.27218 -10.27216 -10.27136 -10.27133 -10.27099
 Alpha  occ. eigenvalues --  -10.27097 -10.27097 -10.27096 -10.26804 -10.26802
 Alpha  occ. eigenvalues --  -10.26613 -10.26612  -0.93108  -0.92777  -0.83088
 Alpha  occ. eigenvalues --   -0.83071  -0.82932  -0.82722  -0.70245  -0.70215
 Alpha  occ. eigenvalues --   -0.66949  -0.66917  -0.58730  -0.58599  -0.56477
 Alpha  occ. eigenvalues --   -0.55990  -0.52330  -0.51665  -0.49873  -0.49813
 Alpha  occ. eigenvalues --   -0.48954  -0.48547  -0.46217  -0.45988  -0.44144
 Alpha  occ. eigenvalues --   -0.43916  -0.40152  -0.40036  -0.38566  -0.38246
 Alpha  occ. eigenvalues --   -0.38231  -0.38161  -0.28779  -0.26968
 Alpha virt. eigenvalues --    0.05136   0.05629   0.13271   0.14436   0.16310
 Alpha virt. eigenvalues --    0.16657   0.17090   0.18064   0.18251   0.18919
 Alpha virt. eigenvalues --    0.19719   0.19749   0.20108   0.21232   0.22956

  Beta  occ. eigenvalues --  -10.27218 -10.27216 -10.27136 -10.27133 -10.27099
  Beta  occ. eigenvalues --  -10.27097 -10.27097 -10.27096 -10.26804 -10.26802
  Beta  occ. eigenvalues --  -10.26613 -10.26612  -0.93108  -0.92777  -0.83088
  Beta  occ. eigenvalues --   -0.83071  -0.82932  -0.82722  -0.70245  -0.70215
  Beta  occ. eigenvalues --   -0.66949  -0.66917  -0.58730  -0.58599  -0.56477
  Beta  occ. eigenvalues --   -0.55990  -0.52330  -0.51665  -0.49873  -0.49813
  Beta  occ. eigenvalues --   -0.48954  -0.48547  -0.46217  -0.45988  -0.44144
  Beta  occ. eigenvalues --   -0.43916  -0.40152  -0.40036  -0.38566  -0.38246
  Beta  occ. eigenvalues --   -0.38231  -0.38161  -0.28779  -0.26968
  Beta virt. eigenvalues --    0.05136   0.05629   0.13271   0.14436   0.16310
  Beta virt. eigenvalues --    0.16657   0.17090   0.18064   0.18251   0.18919
  Beta virt. eigenvalues --    0.19719   0.19749   0.20108   0.21232   0.22956

 Mulliken charges and spin densities:
               1          2
     1  C   -0.205162  -0.000001
     2  C   -0.202004   0.000000
     3  H    0.148852   0.000000
     4  H    0.169440  -0.000000
     5  C   -0.188380  -0.000001
     6  C   -0.201745   0.000001
     7  H    0.166392   0.000000
     8  H    0.169488  -0.000000
     9  C   -0.201099  -0.000001
    10  H    0.130486   0.000000
    11  H    0.137609   0.000000
    12  C   -0.165427   0.000000
    13  H    0.152314  -0.000000
    14  C   -0.203867  -0.000000
    15  H    0.148792   0.000000
    16  C   -0.188877   0.000000
    17  H    0.111542  -0.000000
    18  H    0.132746  -0.000000
    19  C   -0.187775   0.000000
    20  H    0.166231  -0.000000
    21  C   -0.164607   0.000000
    22  H    0.152287   0.000000
    23  C   -0.199782   0.000001
    24  H    0.136187  -0.000000
    25  H    0.130543  -0.000000
    26  C   -0.187895  -0.000000
    27  H    0.132385   0.000000
    28  H    0.111326  -0.000000
 Sum of Mulliken charges =  -0.00000   0.00000

 Dipole moment (field-independent basis, Debye):
    X=             -0.0020    Y=             -0.0022    Z=             -0.0002  Tot=              0.0030
 Quadrupole moment (field-independent basis, Debye-Ang):
   XX=            -70.7978   YY=            -68.0285   ZZ=            -74.6308
   XY=             -3.2115   XZ=             -4.0817   YZ=             -1.6561

 Normal termination of Gaussian 16 at Mon Aug  3 19:43:48 2020.
