 Gaussian 16, Revision B.01,

 ----------------------------------------------------------------------
 #p uwb97xd guess=mix def2tzvp # scrf=(iefpcm,solvent=Cyclohexane,read)
  nosym 6d 10f
 ----------------------------------------------------------------------

 -----------------------
 endo-2 xp-pcm for eta=3
 -----------------------
 Symbolic Z-matrix:
 Charge =  0 Multiplicity = 1

 SCF Done:  E(UwB97XD) =  -466.844734422     A.U. after   18 cycles
 Normal termination of Gaussian 16 at Tue Aug  4 04:04:22 2020.

 ----------------------------------------------------------------------
 #p uwb97xd guess=mix def2tzvp # scrf=(iefpcm,solvent=Cyclohexane,read)
  nosym 6d 10f
 ----------------------------------------------------------------------

 -----------------------
 endo-2 xp-pcm for eta=3
 -----------------------
 Symbolic Z-matrix:
 Charge =  0 Multiplicity = 1

 SCF Done:  E(UwB97XD) =  -466.841641806     A.U. after   18 cycles
 Normal termination of Gaussian 16 at Tue Aug  4 04:10:06 2020.

 ----------------------------------------------------------------------
 #p uwb97xd guess=mix def2tzvp # scrf=(iefpcm,solvent=Cyclohexane,read)
  nosym 6d 10f
 ----------------------------------------------------------------------

 -----------------------
 endo-2 xp-pcm for eta=3
 -----------------------
 Symbolic Z-matrix:
 Charge =  0 Multiplicity = 1

 SCF Done:  E(UwB97XD) =  -466.836686393     A.U. after   18 cycles
 Normal termination of Gaussian 16 at Tue Aug  4 04:15:45 2020.

 ----------------------------------------------------------------------
 #p uwb97xd guess=mix def2tzvp # scrf=(iefpcm,solvent=Cyclohexane,read)
  nosym 6d 10f
 ----------------------------------------------------------------------

 -----------------------
 endo-2 xp-pcm for eta=3
 -----------------------
 Symbolic Z-matrix:
 Charge =  0 Multiplicity = 1

 SCF Done:  E(UwB97XD) =  -466.828907660     A.U. after   18 cycles
 Normal termination of Gaussian 16 at Tue Aug  4 04:21:24 2020.

 ----------------------------------------------------------------------
 #p uwb97xd guess=mix def2tzvp # scrf=(iefpcm,solvent=Cyclohexane,read)
  nosym 6d 10f
 ----------------------------------------------------------------------

 -----------------------
 endo-2 xp-pcm for eta=3
 -----------------------
 Symbolic Z-matrix:
 Charge =  0 Multiplicity = 1

 SCF Done:  E(UwB97XD) =  -466.818785684     A.U. after   18 cycles
 Normal termination of Gaussian 16 at Tue Aug  4 04:27:02 2020.

 ----------------------------------------------------------------------
 #p uwb97xd guess=mix def2tzvp # scrf=(iefpcm,solvent=Cyclohexane,read)
  nosym 6d 10f
 ----------------------------------------------------------------------

 -----------------------
 endo-2 xp-pcm for eta=3
 -----------------------
 Symbolic Z-matrix:
 Charge =  0 Multiplicity = 1

 SCF Done:  E(UwB97XD) =  -466.812998463     A.U. after   18 cycles
 Normal termination of Gaussian 16 at Tue Aug  4 04:32:42 2020.
 Gaussian 16:  ES64L-G16RevB.01 20-Dec-2017

                          Input orientation:
 ---------------------------------------------------------------------
 Center     Atomic      Atomic             Coordinates (Angstroms)
 Number     Number       Type             X           Y           Z
 ---------------------------------------------------------------------
      1          6           0       -3.127383   -0.441200    0.256946
      2          6           0       -0.696508   -0.242696   -1.184341
      3          1           0       -4.079078   -0.538518    0.766502
      4          1           0        0.264362   -0.155913   -1.675481
      5          6           0        1.144636    1.421194    0.762509
      6          6           0        0.696508    0.242696    1.184341
      7          1           0        0.551234    2.317867    0.893879
      8          1           0       -0.264362    0.155913    1.675481
      9          6           0        1.535929   -0.997742    1.081645
     10          1           0        2.043151   -1.124317    2.046516
     11          1           0        0.898815   -1.873600    0.960552
     12          6           0        2.446597    1.527191    0.105512
     13          1           0        2.848349    2.513477   -0.093966
     14          6           0        3.127383    0.441200   -0.256946
     15          1           0        4.079078    0.538518   -0.766502
     16          6           0        2.581145   -0.943485   -0.038369
     17          1           0        2.150037   -1.298130   -0.982721
     18          1           0        3.394647   -1.635414    0.188466
     19          6           0       -1.144636   -1.421194   -0.762509
     20          1           0       -0.551234   -2.317867   -0.893879
     21          6           0       -2.446597   -1.527191   -0.105512
     22          1           0       -2.848349   -2.513477    0.093966
     23          6           0       -1.535929    0.997742   -1.081645
     24          1           0       -0.898815    1.873600   -0.960552
     25          1           0       -2.043151    1.124317   -2.046516
     26          6           0       -2.581145    0.943485    0.038369
     27          1           0       -3.394647    1.635414   -0.188467
     28          1           0       -2.150037    1.298130    0.982721
 ---------------------------------------------------------------------

 SCF Done:  E(UwB97XD) =  -466.805952175     A.U. after   18 cycles

 Alpha  occ. eigenvalues --  -10.27342 -10.27336 -10.27072 -10.27070 -10.27055
 Alpha  occ. eigenvalues --  -10.27052 -10.27043 -10.27043 -10.26778 -10.26776
 Alpha  occ. eigenvalues --  -10.26329 -10.26323  -0.93262  -0.92530  -0.83399
 Alpha  occ. eigenvalues --   -0.83219  -0.82736  -0.82665  -0.70534  -0.70134
 Alpha  occ. eigenvalues --   -0.67081  -0.66916  -0.58776  -0.58636  -0.56423
 Alpha  occ. eigenvalues --   -0.55576  -0.52693  -0.51809  -0.49945  -0.49933
 Alpha  occ. eigenvalues --   -0.48827  -0.48259  -0.46382  -0.45807  -0.44354
 Alpha  occ. eigenvalues --   -0.43958  -0.40303  -0.39943  -0.38754  -0.38301
 Alpha  occ. eigenvalues --   -0.38176  -0.37908  -0.28897  -0.26327
 Alpha virt. eigenvalues --    0.04448   0.06466   0.13366   0.14880   0.16524
 Alpha virt. eigenvalues --    0.16889   0.17443   0.18168   0.18578   0.19075
 Alpha virt. eigenvalues --    0.19446   0.19504   0.20175   0.21239   0.22987

  Beta  occ. eigenvalues --  -10.27342 -10.27336 -10.27072 -10.27070 -10.27055
  Beta  occ. eigenvalues --  -10.27052 -10.27043 -10.27043 -10.26778 -10.26776
  Beta  occ. eigenvalues --  -10.26329 -10.26323  -0.93262  -0.92530  -0.83399
  Beta  occ. eigenvalues --   -0.83219  -0.82736  -0.82665  -0.70534  -0.70134
  Beta  occ. eigenvalues --   -0.67081  -0.66916  -0.58776  -0.58636  -0.56423
  Beta  occ. eigenvalues --   -0.55576  -0.52693  -0.51809  -0.49945  -0.49933
  Beta  occ. eigenvalues --   -0.48827  -0.48259  -0.46382  -0.45807  -0.44354
  Beta  occ. eigenvalues --   -0.43958  -0.40303  -0.39943  -0.38754  -0.38301
  Beta  occ. eigenvalues --   -0.38176  -0.37908  -0.28897  -0.26327
  Beta virt. eigenvalues --    0.04448   0.06466   0.13366   0.14880   0.16524
  Beta virt. eigenvalues --    0.16889   0.17443   0.18168   0.18578   0.19075
  Beta virt. eigenvalues --    0.19446   0.19504   0.20175   0.21239   0.22987

 Mulliken charges and spin densities:
               1          2
     1  C   -0.204862  -0.000001
     2  C   -0.202720   0.000001
     3  H    0.148049   0.000000
     4  H    0.174789  -0.000000
     5  C   -0.186495  -0.000001
     6  C   -0.198617   0.000001
     7  H    0.166510  -0.000000
     8  H    0.173392  -0.000000
     9  C   -0.228438   0.000000
    10  H    0.131633  -0.000000
    11  H    0.148013  -0.000000
    12  C   -0.163079   0.000001
    13  H    0.151616  -0.000000
    14  C   -0.203505  -0.000001
    15  H    0.148071   0.000000
    16  C   -0.194140  -0.000000
    17  H    0.121853  -0.000000
    18  H    0.133245   0.000000
    19  C   -0.186101  -0.000001
    20  H    0.167587   0.000000
    21  C   -0.159906   0.000001
    22  H    0.150517  -0.000000
    23  C   -0.227346  -0.000001
    24  H    0.147365   0.000000
    25  H    0.131817   0.000000
    26  C   -0.193098   0.000000
    27  H    0.133348  -0.000000
    28  H    0.120504  -0.000000
 Sum of Mulliken charges =  -0.00000   0.00000

 Dipole moment (field-independent basis, Debye):
    X=              0.0018    Y=             -0.0090    Z=             -0.0059  Tot=              0.0109
 Quadrupole moment (field-independent basis, Debye-Ang):
   XX=            -70.1991   YY=            -68.1515   ZZ=            -75.5187
   XY=             -3.3945   XZ=             -3.6224   YZ=             -1.7017

 Normal termination of Gaussian 16 at Tue Aug  4 04:38:19 2020.
