 Gaussian 16, Revision B.01,

 ----------------------------------------------------------------------
 #p uwb97xd guess=mix def2tzvp # scrf=(iefpcm,solvent=Cyclohexane,read)
  nosym 6d 10f
 ----------------------------------------------------------------------

 -----------------------
 endo-2 xp-pcm for eta=3
 -----------------------
 Symbolic Z-matrix:
 Charge =  0 Multiplicity = 1

 SCF Done:  E(UwB97XD) =  -466.818578819     A.U. after   19 cycles
 Normal termination of Gaussian 16 at Tue Aug  4 11:30:06 2020.

 ----------------------------------------------------------------------
 #p uwb97xd guess=mix def2tzvp # scrf=(iefpcm,solvent=Cyclohexane,read)
  nosym 6d 10f
 ----------------------------------------------------------------------

 -----------------------
 endo-2 xp-pcm for eta=3
 -----------------------
 Symbolic Z-matrix:
 Charge =  0 Multiplicity = 1

 SCF Done:  E(UwB97XD) =  -466.814583519     A.U. after   19 cycles
 Normal termination of Gaussian 16 at Tue Aug  4 11:36:13 2020.

 ----------------------------------------------------------------------
 #p uwb97xd guess=mix def2tzvp # scrf=(iefpcm,solvent=Cyclohexane,read)
  nosym 6d 10f
 ----------------------------------------------------------------------

 -----------------------
 endo-2 xp-pcm for eta=3
 -----------------------
 Symbolic Z-matrix:
 Charge =  0 Multiplicity = 1

 SCF Done:  E(UwB97XD) =  -466.809948450     A.U. after   19 cycles
 Normal termination of Gaussian 16 at Tue Aug  4 11:42:21 2020.

 ----------------------------------------------------------------------
 #p uwb97xd guess=mix def2tzvp # scrf=(iefpcm,solvent=Cyclohexane,read)
  nosym 6d 10f
 ----------------------------------------------------------------------

 -----------------------
 endo-2 xp-pcm for eta=3
 -----------------------
 Symbolic Z-matrix:
 Charge =  0 Multiplicity = 1

 SCF Done:  E(UwB97XD) =  -466.803684386     A.U. after   19 cycles
 Normal termination of Gaussian 16 at Tue Aug  4 11:48:31 2020.

 ----------------------------------------------------------------------
 #p uwb97xd guess=mix def2tzvp # scrf=(iefpcm,solvent=Cyclohexane,read)
  nosym 6d 10f
 ----------------------------------------------------------------------

 -----------------------
 endo-2 xp-pcm for eta=3
 -----------------------
 Symbolic Z-matrix:
 Charge =  0 Multiplicity = 1

 SCF Done:  E(UwB97XD) =  -466.793128712     A.U. after   19 cycles
 Normal termination of Gaussian 16 at Tue Aug  4 11:54:39 2020.

 ----------------------------------------------------------------------
 #p uwb97xd guess=mix def2tzvp # scrf=(iefpcm,solvent=Cyclohexane,read)
  nosym 6d 10f
 ----------------------------------------------------------------------

 -----------------------
 endo-2 xp-pcm for eta=3
 -----------------------
 Symbolic Z-matrix:
 Charge =  0 Multiplicity = 1

 SCF Done:  E(UwB97XD) =  -466.786149982     A.U. after   20 cycles
 Normal termination of Gaussian 16 at Tue Aug  4 12:01:06 2020.
 Gaussian 16:  ES64L-G16RevB.01 20-Dec-2017

                          Input orientation:
 ---------------------------------------------------------------------
 Center     Atomic      Atomic             Coordinates (Angstroms)
 Number     Number       Type             X           Y           Z
 ---------------------------------------------------------------------
      1          6           0       -3.118578   -0.436876    0.247024
      2          6           0       -0.555477   -0.196368   -0.932206
      3          1           0       -4.082851   -0.549917    0.728725
      4          1           0        0.380936   -0.117306   -1.466881
      5          6           0        1.090379    1.404463    0.689379
      6          6           0        0.555477    0.196368    0.932206
      7          1           0        0.521599    2.308823    0.864348
      8          1           0       -0.380936    0.117306    1.466881
      9          6           0        1.466810   -0.999509    0.989932
     10          1           0        1.911942   -0.970218    1.991724
     11          1           0        0.912395   -1.934620    0.924846
     12          6           0        2.418004    1.516122    0.112667
     13          1           0        2.827281    2.505496   -0.054615
     14          6           0        3.118578    0.436876   -0.247024
     15          1           0        4.082851    0.549917   -0.728725
     16          6           0        2.591691   -0.957992   -0.044788
     17          1           0        2.252888   -1.355863   -1.009385
     18          1           0        3.400558   -1.620027    0.271880
     19          6           0       -1.090379   -1.404463   -0.689379
     20          1           0       -0.521599   -2.308823   -0.864348
     21          6           0       -2.418004   -1.516122   -0.112667
     22          1           0       -2.827281   -2.505496    0.054615
     23          6           0       -1.466810    0.999509   -0.989932
     24          1           0       -0.912395    1.934620   -0.924846
     25          1           0       -1.911942    0.970219   -1.991724
     26          6           0       -2.591691    0.957992    0.044788
     27          1           0       -3.400558    1.620027   -0.271880
     28          1           0       -2.252888    1.355863    1.009385
 ---------------------------------------------------------------------

 SCF Done:  E(UwB97XD) =  -466.777988055     A.U. after   19 cycles

 Alpha  occ. eigenvalues --  -10.27596 -10.27595 -10.27361 -10.27358 -10.27009
 Alpha  occ. eigenvalues --  -10.27006 -10.26989 -10.26985 -10.26764 -10.26760
 Alpha  occ. eigenvalues --  -10.26021 -10.26019  -0.93928  -0.92409  -0.84057
 Alpha  occ. eigenvalues --   -0.83369  -0.82594  -0.82191  -0.70609  -0.69738
 Alpha  occ. eigenvalues --   -0.67776  -0.66780  -0.59046  -0.58814  -0.56943
 Alpha  occ. eigenvalues --   -0.55304  -0.52395  -0.52119  -0.50048  -0.49593
 Alpha  occ. eigenvalues --   -0.48763  -0.47753  -0.46659  -0.46014  -0.45191
 Alpha  occ. eigenvalues --   -0.43673  -0.40488  -0.39973  -0.38839  -0.38273
 Alpha  occ. eigenvalues --   -0.38074  -0.37206  -0.30015  -0.24027
 Alpha virt. eigenvalues --    0.02012   0.08773   0.13356   0.15329   0.16342
 Alpha virt. eigenvalues --    0.16568   0.17749   0.18618   0.19000   0.19063
 Alpha virt. eigenvalues --    0.19457   0.19951   0.20438   0.21500   0.22963

  Beta  occ. eigenvalues --  -10.27596 -10.27595 -10.27361 -10.27358 -10.27009
  Beta  occ. eigenvalues --  -10.27006 -10.26989 -10.26985 -10.26764 -10.26760
  Beta  occ. eigenvalues --  -10.26021 -10.26019  -0.93928  -0.92409  -0.84057
  Beta  occ. eigenvalues --   -0.83369  -0.82594  -0.82191  -0.70609  -0.69738
  Beta  occ. eigenvalues --   -0.67776  -0.66780  -0.59046  -0.58814  -0.56943
  Beta  occ. eigenvalues --   -0.55304  -0.52395  -0.52119  -0.50048  -0.49593
  Beta  occ. eigenvalues --   -0.48763  -0.47753  -0.46659  -0.46014  -0.45191
  Beta  occ. eigenvalues --   -0.43673  -0.40488  -0.39973  -0.38839  -0.38273
  Beta  occ. eigenvalues --   -0.38074  -0.37206  -0.30015  -0.24027
  Beta virt. eigenvalues --    0.02012   0.08773   0.13356   0.15329   0.16342
  Beta virt. eigenvalues --    0.16568   0.17749   0.18618   0.19000   0.19063
  Beta virt. eigenvalues --    0.19457   0.19951   0.20438   0.21500   0.22963

 Mulliken charges and spin densities:
               1          2
     1  C   -0.203396  -0.000004
     2  C   -0.214935   0.000003
     3  H    0.147936   0.000000
     4  H    0.188887   0.000000
     5  C   -0.165594   0.000004
     6  C   -0.213898  -0.000002
     7  H    0.161680  -0.000000
     8  H    0.187616  -0.000000
     9  C   -0.237282  -0.000002
    10  H    0.135289   0.000000
    11  H    0.155419   0.000000
    12  C   -0.177007  -0.000002
    13  H    0.150321  -0.000000
    14  C   -0.204445   0.000003
    15  H    0.147909  -0.000000
    16  C   -0.200564   0.000000
    17  H    0.125385   0.000000
    18  H    0.135296  -0.000000
    19  C   -0.165778  -0.000005
    20  H    0.160927   0.000000
    21  C   -0.178156   0.000003
    22  H    0.150566   0.000000
    23  C   -0.234614   0.000002
    24  H    0.155201  -0.000000
    25  H    0.134499  -0.000000
    26  C   -0.203215  -0.000000
    27  H    0.135550  -0.000000
    28  H    0.126403  -0.000000
 Sum of Mulliken charges =  -0.00000  -0.00000

 Dipole moment (field-independent basis, Debye):
    X=             -0.0010    Y=             -0.0000    Z=             -0.0028  Tot=              0.0030
 Quadrupole moment (field-independent basis, Debye-Ang):
   XX=            -70.4539   YY=            -68.4575   ZZ=            -75.4503
   XY=             -3.3055   XZ=             -3.1912   YZ=             -1.2295

 Normal termination of Gaussian 16 at Tue Aug  4 12:07:12 2020.
