 Gaussian 16, Revision B.01,

 ----------------------------------------------------------------------
 #p uwb97xd guess=mix def2tzvp # scrf=(iefpcm,solvent=Cyclohexane,read)
  nosym 6d 10f
 ----------------------------------------------------------------------

 -----------------------
 endo-2 xp-pcm for eta=3
 -----------------------
 Symbolic Z-matrix:
 Charge =  0 Multiplicity = 1

 SCF Done:  E(UwB97XD) =  -466.822200091     A.U. after   19 cycles
 Normal termination of Gaussian 16 at Tue Aug  4 10:47:51 2020.

 ----------------------------------------------------------------------
 #p uwb97xd guess=mix def2tzvp # scrf=(iefpcm,solvent=Cyclohexane,read)
  nosym 6d 10f
 ----------------------------------------------------------------------

 -----------------------
 endo-2 xp-pcm for eta=3
 -----------------------
 Symbolic Z-matrix:
 Charge =  0 Multiplicity = 1

 SCF Done:  E(UwB97XD) =  -466.819504028     A.U. after   19 cycles
 Normal termination of Gaussian 16 at Tue Aug  4 10:53:58 2020.

 ----------------------------------------------------------------------
 #p uwb97xd guess=mix def2tzvp # scrf=(iefpcm,solvent=Cyclohexane,read)
  nosym 6d 10f
 ----------------------------------------------------------------------

 -----------------------
 endo-2 xp-pcm for eta=3
 -----------------------
 Symbolic Z-matrix:
 Charge =  0 Multiplicity = 1

 SCF Done:  E(UwB97XD) =  -466.814445709     A.U. after   19 cycles
 Normal termination of Gaussian 16 at Tue Aug  4 11:00:06 2020.

 ----------------------------------------------------------------------
 #p uwb97xd guess=mix def2tzvp # scrf=(iefpcm,solvent=Cyclohexane,read)
  nosym 6d 10f
 ----------------------------------------------------------------------

 -----------------------
 endo-2 xp-pcm for eta=3
 -----------------------
 Symbolic Z-matrix:
 Charge =  0 Multiplicity = 1

 SCF Done:  E(UwB97XD) =  -466.807352935     A.U. after   19 cycles
 Normal termination of Gaussian 16 at Tue Aug  4 11:06:14 2020.

 ----------------------------------------------------------------------
 #p uwb97xd guess=mix def2tzvp # scrf=(iefpcm,solvent=Cyclohexane,read)
  nosym 6d 10f
 ----------------------------------------------------------------------

 -----------------------
 endo-2 xp-pcm for eta=3
 -----------------------
 Symbolic Z-matrix:
 Charge =  0 Multiplicity = 1

 SCF Done:  E(UwB97XD) =  -466.797458979     A.U. after   18 cycles
 Normal termination of Gaussian 16 at Tue Aug  4 11:12:02 2020.

 ----------------------------------------------------------------------
 #p uwb97xd guess=mix def2tzvp # scrf=(iefpcm,solvent=Cyclohexane,read)
  nosym 6d 10f
 ----------------------------------------------------------------------

 -----------------------
 endo-2 xp-pcm for eta=3
 -----------------------
 Symbolic Z-matrix:
 Charge =  0 Multiplicity = 1

 SCF Done:  E(UwB97XD) =  -466.791126320     A.U. after   19 cycles
 Normal termination of Gaussian 16 at Tue Aug  4 11:18:07 2020.
 Gaussian 16:  ES64L-G16RevB.01 20-Dec-2017

                          Input orientation:
 ---------------------------------------------------------------------
 Center     Atomic      Atomic             Coordinates (Angstroms)
 Number     Number       Type             X           Y           Z
 ---------------------------------------------------------------------
      1          6           0       -3.119292   -0.437085    0.247292
      2          6           0       -0.569370   -0.202476   -0.959340
      3          1           0       -4.083426   -0.549760    0.729383
      4          1           0        0.380387   -0.117904   -1.468298
      5          6           0        1.091078    1.405545    0.692127
      6          6           0        0.569370    0.202476    0.959340
      7          1           0        0.517151    2.308513    0.856707
      8          1           0       -0.380387    0.117904    1.468298
      9          6           0        1.469648   -0.999582    0.993300
     10          1           0        1.920562   -0.988028    1.993185
     11          1           0        0.906483   -1.928611    0.921226
     12          6           0        2.419739    1.515988    0.111913
     13          1           0        2.828521    2.505149   -0.057522
     14          6           0        3.119292    0.437085   -0.247292
     15          1           0        4.083426    0.549760   -0.729383
     16          6           0        2.591527   -0.957486   -0.045320
     17          1           0        2.251568   -1.354671   -1.009800
     18          1           0        3.400483   -1.619871    0.270232
     19          6           0       -1.091078   -1.405545   -0.692127
     20          1           0       -0.517151   -2.308513   -0.856707
     21          6           0       -2.419738   -1.515988   -0.111913
     22          1           0       -2.828521   -2.505149    0.057522
     23          6           0       -1.469648    0.999582   -0.993300
     24          1           0       -0.906482    1.928611   -0.921226
     25          1           0       -1.920562    0.988028   -1.993185
     26          6           0       -2.591527    0.957486    0.045320
     27          1           0       -3.400483    1.619871   -0.270232
     28          1           0       -2.251568    1.354671    1.009800
 ---------------------------------------------------------------------

 SCF Done:  E(UwB97XD) =  -466.783675588     A.U. after   18 cycles

 Alpha  occ. eigenvalues --  -10.27439 -10.27436 -10.27374 -10.27374 -10.27004
 Alpha  occ. eigenvalues --  -10.27002 -10.26992 -10.26984 -10.26766 -10.26765
 Alpha  occ. eigenvalues --  -10.25993 -10.25991  -0.93870  -0.92441  -0.83996
 Alpha  occ. eigenvalues --   -0.83375  -0.82610  -0.82290  -0.70653  -0.69818
 Alpha  occ. eigenvalues --   -0.67662  -0.66791  -0.59011  -0.58856  -0.56878
 Alpha  occ. eigenvalues --   -0.55327  -0.52465  -0.52090  -0.50057  -0.49694
 Alpha  occ. eigenvalues --   -0.48801  -0.47839  -0.46646  -0.45967  -0.45100
 Alpha  occ. eigenvalues --   -0.43698  -0.40488  -0.39964  -0.38867  -0.38240
 Alpha  occ. eigenvalues --   -0.38097  -0.37341  -0.29779  -0.24459
 Alpha virt. eigenvalues --    0.02510   0.08433   0.13358   0.15274   0.16475
 Alpha virt. eigenvalues --    0.16601   0.17755   0.18646   0.18908   0.18961
 Alpha virt. eigenvalues --    0.19462   0.19746   0.20450   0.21450   0.22958

  Beta  occ. eigenvalues --  -10.27439 -10.27436 -10.27374 -10.27374 -10.27004
  Beta  occ. eigenvalues --  -10.27002 -10.26992 -10.26984 -10.26766 -10.26765
  Beta  occ. eigenvalues --  -10.25993 -10.25991  -0.93870  -0.92441  -0.83996
  Beta  occ. eigenvalues --   -0.83375  -0.82610  -0.82290  -0.70653  -0.69818
  Beta  occ. eigenvalues --   -0.67662  -0.66791  -0.59011  -0.58856  -0.56878
  Beta  occ. eigenvalues --   -0.55327  -0.52465  -0.52090  -0.50057  -0.49694
  Beta  occ. eigenvalues --   -0.48801  -0.47839  -0.46646  -0.45967  -0.45100
  Beta  occ. eigenvalues --   -0.43698  -0.40488  -0.39964  -0.38867  -0.38240
  Beta  occ. eigenvalues --   -0.38097  -0.37341  -0.29779  -0.24459
  Beta virt. eigenvalues --    0.02510   0.08433   0.13358   0.15274   0.16475
  Beta virt. eigenvalues --    0.16601   0.17755   0.18646   0.18908   0.18961
  Beta virt. eigenvalues --    0.19462   0.19746   0.20450   0.21450   0.22958

 Mulliken charges and spin densities:
               1          2
     1  C   -0.202297  -0.000005
     2  C   -0.215802  -0.000002
     3  H    0.147906   0.000000
     4  H    0.189905   0.000000
     5  C   -0.164870  -0.000003
     6  C   -0.217365   0.000003
     7  H    0.162051   0.000000
     8  H    0.189081  -0.000000
     9  C   -0.234995  -0.000000
    10  H    0.134714   0.000000
    11  H    0.154662   0.000000
    12  C   -0.177466  -0.000004
    13  H    0.150723   0.000000
    14  C   -0.202924   0.000004
    15  H    0.147828  -0.000000
    16  C   -0.202046  -0.000001
    17  H    0.125409   0.000000
    18  H    0.135161   0.000000
    19  C   -0.166866   0.000002
    20  H    0.162099  -0.000000
    21  C   -0.177612   0.000005
    22  H    0.150669  -0.000000
    23  C   -0.236501   0.000000
    24  H    0.155869   0.000000
    25  H    0.134598  -0.000000
    26  C   -0.203047   0.000001
    27  H    0.135441  -0.000000
    28  H    0.125673  -0.000000
 Sum of Mulliken charges =  -0.00000   0.00000

 Dipole moment (field-independent basis, Debye):
    X=              0.0003    Y=              0.0014    Z=             -0.0054  Tot=              0.0056
 Quadrupole moment (field-independent basis, Debye-Ang):
   XX=            -70.3853   YY=            -68.3970   ZZ=            -75.5287
   XY=             -3.3404   XZ=             -3.2211   YZ=             -1.3160

 Normal termination of Gaussian 16 at Tue Aug  4 11:23:54 2020.
