 Gaussian 16, Revision B.01,
 Gaussian 16:  ES64L-G16RevB.01 20-Dec-2017

 ----------------------------------------------------------------------
 #p uwb97xd guess=mix def2tzvp # scrf=(iefpcm,solvent=Cyclohexane,read)
  nosym 6d 10f
 ----------------------------------------------------------------------

 -----------------------
 endo-2 xp-pcm for eta=3
 -----------------------
 Symbolic Z-matrix:
 Charge =  0 Multiplicity = 1

                          Input orientation:
 ---------------------------------------------------------------------
 Center     Atomic      Atomic             Coordinates (Angstroms)
 Number     Number       Type             X           Y           Z
 ---------------------------------------------------------------------
      1          6           0       -3.121942   -0.439924    0.277771
      2          6           0       -0.797162   -0.267484   -1.333299
      3          1           0       -4.044520   -0.521623    0.840727
      4          1           0        0.132617   -0.192479   -1.884118
      5          6           0        1.213684    1.436717    0.855014
      6          6           0        0.797162    0.267484    1.333299
      7          1           0        0.625474    2.334691    1.002965
      8          1           0       -0.132617    0.192479    1.884118
      9          6           0        1.625967   -0.975882    1.184356
     10          1           0        2.219247   -1.095182    2.100353
     11          1           0        0.977773   -1.851608    1.125614
     12          6           0        2.478853    1.534377    0.125170
     13          1           0        2.879166    2.517204   -0.093218
     14          6           0        3.121942    0.439924   -0.277771
     15          1           0        4.044520    0.521623   -0.840727
     16          6           0        2.555680   -0.931899   -0.031548
     17          1           0        2.009120   -1.243493   -0.930088
     18          1           0        3.361336   -1.657785    0.093053
     19          6           0       -1.213684   -1.436717   -0.855014
     20          1           0       -0.625474   -2.334691   -1.002965
     21          6           0       -2.478853   -1.534377   -0.125170
     22          1           0       -2.879166   -2.517204    0.093218
     23          6           0       -1.625967    0.975882   -1.184356
     24          1           0       -0.977773    1.851608   -1.125614
     25          1           0       -2.219247    1.095182   -2.100353
     26          6           0       -2.555680    0.931899    0.031548
     27          1           0       -3.361336    1.657785   -0.093053
     28          1           0       -2.009120    1.243493    0.930088
 ---------------------------------------------------------------------

 SCF Done:  E(UwB97XD) =  -466.859590743     A.U. after   17 cycles

 Alpha  occ. eigenvalues --  -10.28479 -10.28477 -10.28332 -10.28331 -10.28313
 Alpha  occ. eigenvalues --  -10.28311 -10.28230 -10.28228 -10.28023 -10.28021
 Alpha  occ. eigenvalues --  -10.27704 -10.27702  -0.94170  -0.93744  -0.84197
 Alpha  occ. eigenvalues --   -0.84144  -0.83941  -0.83761  -0.71355  -0.71276
 Alpha  occ. eigenvalues --   -0.67981  -0.67975  -0.59789  -0.59649  -0.57459
 Alpha  occ. eigenvalues --   -0.56888  -0.53510  -0.52766  -0.50980  -0.50922
 Alpha  occ. eigenvalues --   -0.49994  -0.49555  -0.47354  -0.47023  -0.45162
 Alpha  occ. eigenvalues --   -0.45097  -0.41280  -0.41091  -0.39711  -0.39313
 Alpha  occ. eigenvalues --   -0.39291  -0.39106  -0.29821  -0.27847
 Alpha virt. eigenvalues --    0.03737   0.04644   0.10516   0.12222   0.13307
 Alpha virt. eigenvalues --    0.14336   0.14691   0.15527   0.15636   0.15870
 Alpha virt. eigenvalues --    0.16848   0.16887   0.17126   0.18208   0.19911

  Beta  occ. eigenvalues --  -10.28479 -10.28477 -10.28332 -10.28331 -10.28313
  Beta  occ. eigenvalues --  -10.28311 -10.28230 -10.28228 -10.28023 -10.28021
  Beta  occ. eigenvalues --  -10.27704 -10.27702  -0.94170  -0.93744  -0.84197
  Beta  occ. eigenvalues --   -0.84144  -0.83941  -0.83761  -0.71355  -0.71276
  Beta  occ. eigenvalues --   -0.67981  -0.67975  -0.59789  -0.59649  -0.57459
  Beta  occ. eigenvalues --   -0.56888  -0.53510  -0.52766  -0.50980  -0.50922
  Beta  occ. eigenvalues --   -0.49994  -0.49555  -0.47354  -0.47023  -0.45162
  Beta  occ. eigenvalues --   -0.45097  -0.41280  -0.41091  -0.39711  -0.39313
  Beta  occ. eigenvalues --   -0.39291  -0.39106  -0.29821  -0.27847
  Beta virt. eigenvalues --    0.03737   0.04644   0.10516   0.12222   0.13307
  Beta virt. eigenvalues --    0.14336   0.14691   0.15527   0.15636   0.15870
  Beta virt. eigenvalues --    0.16848   0.16887   0.17126   0.18208   0.19911

 Mulliken charges and spin densities:
               1          2
     1  C   -0.210477  -0.000001
     2  C   -0.182229   0.000000
     3  H    0.142270   0.000000
     4  H    0.157217   0.000000
     5  C   -0.168173  -0.000001
     6  C   -0.182269  -0.000000
     7  H    0.151502   0.000000
     8  H    0.157301  -0.000000
     9  C   -0.188769  -0.000001
    10  H    0.117812   0.000000
    11  H    0.132288   0.000000
    12  C   -0.156305  -0.000000
    13  H    0.145695  -0.000000
    14  C   -0.210402   0.000001
    15  H    0.142260  -0.000000
    16  C   -0.175133   0.000000
    17  H    0.109174   0.000000
    18  H    0.125022  -0.000000
    19  C   -0.168166   0.000000
    20  H    0.151510  -0.000000
    21  C   -0.156251   0.000000
    22  H    0.145680   0.000000
    23  C   -0.188690   0.000001
    24  H    0.132210  -0.000000
    25  H    0.117826  -0.000000
    26  C   -0.175076  -0.000000
    27  H    0.125032   0.000000
    28  H    0.109140  -0.000000
 Sum of Mulliken charges =  -0.00000  -0.00000

 Dipole moment (field-independent basis, Debye):
    X=             -0.0000    Y=              0.0003    Z=              0.0001  Tot=              0.0003
 Quadrupole moment (field-independent basis, Debye-Ang):
   XX=            -72.6874   YY=            -69.7653   ZZ=            -76.5707
   XY=             -3.2366   XZ=             -3.9709   YZ=             -1.7120

 Normal termination of Gaussian 16 at Mon Aug  3 14:12:34 2020.
