 Gaussian 16, Revision B.01,

 ----------------------------------------------------------------------
 #p uwb97xd guess=mix def2tzvp # scrf=(iefpcm,solvent=Cyclohexane,read)
  nosym 6d 10f
 ----------------------------------------------------------------------

 -----------------------
 endo-2 xp-pcm for eta=3
 -----------------------
 Symbolic Z-matrix:
 Charge =  0 Multiplicity = 1

 SCF Done:  E(UwB97XD) =  -466.850419752     A.U. after   17 cycles
 Normal termination of Gaussian 16 at Mon Aug  3 19:49:05 2020.

 ----------------------------------------------------------------------
 #p uwb97xd guess=mix def2tzvp # scrf=(iefpcm,solvent=Cyclohexane,read)
  nosym 6d 10f
 ----------------------------------------------------------------------

 -----------------------
 endo-2 xp-pcm for eta=3
 -----------------------
 Symbolic Z-matrix:
 Charge =  0 Multiplicity = 1

 SCF Done:  E(UwB97XD) =  -466.847262946     A.U. after   17 cycles
 Normal termination of Gaussian 16 at Mon Aug  3 19:54:22 2020.

 ----------------------------------------------------------------------
 #p uwb97xd guess=mix def2tzvp # scrf=(iefpcm,solvent=Cyclohexane,read)
  nosym 6d 10f
 ----------------------------------------------------------------------

 -----------------------
 endo-2 xp-pcm for eta=3
 -----------------------
 Symbolic Z-matrix:
 Charge =  0 Multiplicity = 1

 SCF Done:  E(UwB97XD) =  -466.843330107     A.U. after   17 cycles
 Normal termination of Gaussian 16 at Mon Aug  3 19:59:36 2020.

 ----------------------------------------------------------------------
 #p uwb97xd guess=mix def2tzvp # scrf=(iefpcm,solvent=Cyclohexane,read)
  nosym 6d 10f
 ----------------------------------------------------------------------

 -----------------------
 endo-2 xp-pcm for eta=3
 -----------------------
 Symbolic Z-matrix:
 Charge =  0 Multiplicity = 1

 SCF Done:  E(UwB97XD) =  -466.834596494     A.U. after   17 cycles
 Normal termination of Gaussian 16 at Mon Aug  3 20:04:53 2020.

 ----------------------------------------------------------------------
 #p uwb97xd guess=mix def2tzvp # scrf=(iefpcm,solvent=Cyclohexane,read)
  nosym 6d 10f
 ----------------------------------------------------------------------

 -----------------------
 endo-2 xp-pcm for eta=3
 -----------------------
 Symbolic Z-matrix:
 Charge =  0 Multiplicity = 1

 SCF Done:  E(UwB97XD) =  -466.826733063     A.U. after   17 cycles
 Normal termination of Gaussian 16 at Mon Aug  3 20:10:10 2020.

 ----------------------------------------------------------------------
 #p uwb97xd guess=mix def2tzvp # scrf=(iefpcm,solvent=Cyclohexane,read)
  nosym 6d 10f
 ----------------------------------------------------------------------

 -----------------------
 endo-2 xp-pcm for eta=3
 -----------------------
 Symbolic Z-matrix:
 Charge =  0 Multiplicity = 1

 SCF Done:  E(UwB97XD) =  -466.819267518     A.U. after   17 cycles
 Normal termination of Gaussian 16 at Mon Aug  3 20:15:30 2020.
 Gaussian 16:  ES64L-G16RevB.01 20-Dec-2017

                          Input orientation:
 ---------------------------------------------------------------------
 Center     Atomic      Atomic             Coordinates (Angstroms)
 Number     Number       Type             X           Y           Z
 ---------------------------------------------------------------------
      1          6           0       -3.111354   -0.438024    0.288476
      2          6           0       -0.838887   -0.280035   -1.396455
      3          1           0       -4.018848   -0.512178    0.876391
      4          1           0        0.074286   -0.210856   -1.975395
      5          6           0        1.243587    1.445746    0.898709
      6          6           0        0.838887    0.280035    1.396455
      7          1           0        0.661682    2.345979    1.057759
      8          1           0       -0.074286    0.210856    1.975395
      9          6           0        1.663200   -0.964107    1.227344
     10          1           0        2.298573   -1.072496    2.116318
     11          1           0        1.015835   -1.842319    1.205078
     12          6           0        2.490124    1.536957    0.136281
     13          1           0        2.892627    2.517404   -0.088621
     14          6           0        3.111354    0.438024   -0.288476
     15          1           0        4.018848    0.512178   -0.876391
     16          6           0        2.534434   -0.926987   -0.030159
     17          1           0        1.936253   -1.217234   -0.902586
     18          1           0        3.331183   -1.668816    0.048441
     19          6           0       -1.243587   -1.445746   -0.898709
     20          1           0       -0.661682   -2.345979   -1.057759
     21          6           0       -2.490124   -1.536957   -0.136281
     22          1           0       -2.892627   -2.517404    0.088621
     23          6           0       -1.663200    0.964107   -1.227344
     24          1           0       -1.015835    1.842319   -1.205078
     25          1           0       -2.298573    1.072496   -2.116318
     26          6           0       -2.534434    0.926987    0.030159
     27          1           0       -3.331183    1.668816   -0.048441
     28          1           0       -1.936253    1.217234    0.902586
 ---------------------------------------------------------------------

 SCF Done:  E(UwB97XD) =  -466.811689703     A.U. after   17 cycles

 Alpha  occ. eigenvalues --  -10.27226 -10.27225 -10.27139 -10.27133 -10.27098
 Alpha  occ. eigenvalues --  -10.27096 -10.27095 -10.27094 -10.26803 -10.26802
 Alpha  occ. eigenvalues --  -10.26605 -10.26601  -0.93110  -0.92763  -0.83102
 Alpha  occ. eigenvalues --   -0.83074  -0.82930  -0.82722  -0.70243  -0.70233
 Alpha  occ. eigenvalues --   -0.66949  -0.66923  -0.58730  -0.58598  -0.56467
 Alpha  occ. eigenvalues --   -0.55966  -0.52355  -0.51675  -0.49881  -0.49821
 Alpha  occ. eigenvalues --   -0.48948  -0.48535  -0.46222  -0.45976  -0.44134
 Alpha  occ. eigenvalues --   -0.43936  -0.40160  -0.40031  -0.38579  -0.38263
 Alpha  occ. eigenvalues --   -0.38229  -0.38150  -0.28782  -0.26942
 Alpha virt. eigenvalues --    0.05107   0.05662   0.13267   0.14447   0.16323
 Alpha virt. eigenvalues --    0.16687   0.17098   0.18055   0.18267   0.18923
 Alpha virt. eigenvalues --    0.19698   0.19728   0.20100   0.21226   0.22960

  Beta  occ. eigenvalues --  -10.27226 -10.27225 -10.27139 -10.27133 -10.27098
  Beta  occ. eigenvalues --  -10.27096 -10.27095 -10.27094 -10.26803 -10.26802
  Beta  occ. eigenvalues --  -10.26605 -10.26601  -0.93110  -0.92763  -0.83102
  Beta  occ. eigenvalues --   -0.83074  -0.82930  -0.82722  -0.70243  -0.70233
  Beta  occ. eigenvalues --   -0.66949  -0.66923  -0.58730  -0.58598  -0.56467
  Beta  occ. eigenvalues --   -0.55966  -0.52355  -0.51675  -0.49881  -0.49821
  Beta  occ. eigenvalues --   -0.48948  -0.48535  -0.46222  -0.45976  -0.44134
  Beta  occ. eigenvalues --   -0.43936  -0.40160  -0.40031  -0.38579  -0.38263
  Beta  occ. eigenvalues --   -0.38229  -0.38150  -0.28782  -0.26942
  Beta virt. eigenvalues --    0.05107   0.05662   0.13267   0.14447   0.16323
  Beta virt. eigenvalues --    0.16687   0.17098   0.18055   0.18267   0.18923
  Beta virt. eigenvalues --    0.19698   0.19728   0.20100   0.21226   0.22960

 Mulliken charges and spin densities:
               1          2
     1  C   -0.203796  -0.000001
     2  C   -0.199731   0.000001
     3  H    0.148775   0.000000
     4  H    0.169169   0.000000
     5  C   -0.188848  -0.000001
     6  C   -0.199773   0.000001
     7  H    0.165902   0.000000
     8  H    0.169285  -0.000000
     9  C   -0.202153  -0.000001
    10  H    0.130688   0.000000
    11  H    0.136340   0.000000
    12  C   -0.164387   0.000001
    13  H    0.152332  -0.000000
    14  C   -0.204638  -0.000000
    15  H    0.148857   0.000000
    16  C   -0.189789   0.000001
    17  H    0.113839  -0.000000
    18  H    0.132371  -0.000000
    19  C   -0.188730  -0.000000
    20  H    0.165978  -0.000000
    21  C   -0.164702   0.000001
    22  H    0.152179   0.000000
    23  C   -0.202346   0.000001
    24  H    0.137506  -0.000000
    25  H    0.130489  -0.000000
    26  C   -0.189017  -0.000000
    27  H    0.132374   0.000000
    28  H    0.111824  -0.000000
 Sum of Mulliken charges =  -0.00000   0.00000

 Dipole moment (field-independent basis, Debye):
    X=             -0.0000    Y=              0.0003    Z=             -0.0019  Tot=              0.0019
 Quadrupole moment (field-independent basis, Debye-Ang):
   XX=            -70.7184   YY=            -68.0514   ZZ=            -74.7093
   XY=             -3.2371   XZ=             -4.0528   YZ=             -1.6716

 Normal termination of Gaussian 16 at Mon Aug  3 20:20:47 2020.
