 Gaussian 16, Revision B.01,
 Gaussian 16:  ES64L-G16RevB.01 20-Dec-2017

 ----------------------------------------------------------------------
 #p uwb97xd guess=mix def2tzvp # scrf=(iefpcm,solvent=Cyclohexane,read)
  nosym 6d 10f
 ----------------------------------------------------------------------

 -----------------------
 endo-2 xp-pcm for eta=3
 -----------------------
 Symbolic Z-matrix:
 Charge =  0 Multiplicity = 1

                          Input orientation:
 ---------------------------------------------------------------------
 Center     Atomic      Atomic             Coordinates (Angstroms)
 Number     Number       Type             X           Y           Z
 ---------------------------------------------------------------------
      1          6           0       -3.127568   -0.441485    0.263433
      2          6           0       -0.731288   -0.250831   -1.236755
      3          1           0       -4.070209   -0.533386    0.790505
      4          1           0        0.219568   -0.168512   -1.748484
      5          6           0        1.167775    1.425763    0.792854
      6          6           0        0.731288    0.250831    1.236755
      7          1           0        0.574947    2.322303    0.929282
      8          1           0       -0.219568    0.168512    1.748484
      9          6           0        1.564621   -0.992103    1.115813
     10          1           0        2.097096   -1.123993    2.066407
     11          1           0        0.920060   -1.865000    1.008560
     12          6           0        2.457254    1.530153    0.109662
     13          1           0        2.856885    2.515574   -0.098107
     14          6           0        3.127568    0.441485   -0.263433
     15          1           0        4.070209    0.533386   -0.790505
     16          6           0        2.575144   -0.939221   -0.035211
     17          1           0        2.106401   -1.279780   -0.966682
     18          1           0        3.387766   -1.642218    0.157850
     19          6           0       -1.167775   -1.425763   -0.792854
     20          1           0       -0.574947   -2.322303   -0.929282
     21          6           0       -2.457254   -1.530153   -0.109662
     22          1           0       -2.856885   -2.515574    0.098107
     23          6           0       -1.564621    0.992103   -1.115813
     24          1           0       -0.920060    1.865000   -1.008560
     25          1           0       -2.097096    1.123993   -2.066407
     26          6           0       -2.575144    0.939221    0.035211
     27          1           0       -3.387766    1.642218   -0.157850
     28          1           0       -2.106402    1.279780    0.966682
 ---------------------------------------------------------------------

 SCF Done:  E(UwB97XD) =  -466.856890261     A.U. after   18 cycles

 Alpha  occ. eigenvalues --  -10.28548 -10.28548 -10.28307 -10.28307 -10.28306
 Alpha  occ. eigenvalues --  -10.28305 -10.28213 -10.28212 -10.28021 -10.28020
 Alpha  occ. eigenvalues --  -10.27591 -10.27590  -0.94248  -0.93643  -0.84347
 Alpha  occ. eigenvalues --   -0.84228  -0.83861  -0.83745  -0.71512  -0.71239
 Alpha  occ. eigenvalues --   -0.68063  -0.67972  -0.59819  -0.59674  -0.57441
 Alpha  occ. eigenvalues --   -0.56710  -0.53694  -0.52839  -0.51026  -0.50988
 Alpha  occ. eigenvalues --   -0.49943  -0.49440  -0.47441  -0.46953  -0.45299
 Alpha  occ. eigenvalues --   -0.45094  -0.41361  -0.41060  -0.39802  -0.39341
 Alpha  occ. eigenvalues --   -0.39275  -0.39015  -0.29877  -0.27580
 Alpha virt. eigenvalues --    0.03414   0.04987   0.10513   0.12272   0.13354
 Alpha virt. eigenvalues --    0.14462   0.14838   0.15647   0.15681   0.15845
 Alpha virt. eigenvalues --    0.16769   0.16907   0.17181   0.18206   0.19953

  Beta  occ. eigenvalues --  -10.28548 -10.28548 -10.28307 -10.28307 -10.28306
  Beta  occ. eigenvalues --  -10.28305 -10.28213 -10.28212 -10.28021 -10.28020
  Beta  occ. eigenvalues --  -10.27591 -10.27590  -0.94248  -0.93643  -0.84347
  Beta  occ. eigenvalues --   -0.84228  -0.83861  -0.83745  -0.71512  -0.71239
  Beta  occ. eigenvalues --   -0.68063  -0.67972  -0.59819  -0.59674  -0.57441
  Beta  occ. eigenvalues --   -0.56710  -0.53694  -0.52839  -0.51026  -0.50988
  Beta  occ. eigenvalues --   -0.49943  -0.49440  -0.47441  -0.46953  -0.45299
  Beta  occ. eigenvalues --   -0.45094  -0.41361  -0.41060  -0.39802  -0.39341
  Beta  occ. eigenvalues --   -0.39275  -0.39015  -0.29877  -0.27580
  Beta virt. eigenvalues --    0.03414   0.04987   0.10513   0.12272   0.13354
  Beta virt. eigenvalues --    0.14462   0.14838   0.15647   0.15681   0.15845
  Beta virt. eigenvalues --    0.16769   0.16907   0.17181   0.18206   0.19953

 Mulliken charges and spin densities:
               1          2
     1  C   -0.209837   0.000000
     2  C   -0.183851  -0.000000
     3  H    0.141960  -0.000000
     4  H    0.161136   0.000000
     5  C   -0.167787   0.000000
     6  C   -0.183765  -0.000000
     7  H    0.153769  -0.000000
     8  H    0.161295  -0.000000
     9  C   -0.202113   0.000001
    10  H    0.118761  -0.000000
    11  H    0.136911  -0.000000
    12  C   -0.157506  -0.000000
    13  H    0.145526   0.000000
    14  C   -0.209706  -0.000000
    15  H    0.141950   0.000000
    16  C   -0.174044  -0.000000
    17  H    0.111124   0.000000
    18  H    0.125598   0.000000
    19  C   -0.167612   0.000000
    20  H    0.153811   0.000000
    21  C   -0.157408  -0.000000
    22  H    0.145509  -0.000000
    23  C   -0.202168  -0.000001
    24  H    0.136992   0.000000
    25  H    0.118735   0.000000
    26  C   -0.174054   0.000000
    27  H    0.125610  -0.000000
    28  H    0.111164  -0.000000
 Sum of Mulliken charges =  -0.00000   0.00000

 Dipole moment (field-independent basis, Debye):
    X=             -0.0001    Y=              0.0004    Z=              0.0002  Tot=              0.0005
 Quadrupole moment (field-independent basis, Debye-Ang):
   XX=            -72.4046   YY=            -69.8101   ZZ=            -76.9138
   XY=             -3.3012   XZ=             -3.7560   YZ=             -1.7307

 Normal termination of Gaussian 16 at Mon Aug  3 14:43:42 2020.
