 Gaussian 16, Revision B.01,

 ----------------------------------------------------------------------
 #p uwb97xd guess=mix def2tzvp # scrf=(iefpcm,solvent=Cyclohexane,read)
  nosym 6d 10f
 ----------------------------------------------------------------------

 -----------------------
 endo-2 xp-pcm for eta=3
 -----------------------
 Symbolic Z-matrix:
 Charge =  0 Multiplicity = 1

 SCF Done:  E(UwB97XD) =  -466.823956054     A.U. after   14 cycles
 Normal termination of Gaussian 16 at Tue Aug  4 18:16:39 2020.

 ----------------------------------------------------------------------
 #p uwb97xd guess=mix def2tzvp # scrf=(iefpcm,solvent=Cyclohexane,read)
  nosym 6d 10f
 ----------------------------------------------------------------------

 -----------------------
 endo-2 xp-pcm for eta=3
 -----------------------
 Symbolic Z-matrix:
 Charge =  0 Multiplicity = 1

 SCF Done:  E(UwB97XD) =  -466.820325902     A.U. after   14 cycles
 Normal termination of Gaussian 16 at Tue Aug  4 18:21:17 2020.

 ----------------------------------------------------------------------
 #p uwb97xd guess=mix def2tzvp # scrf=(iefpcm,solvent=Cyclohexane,read)
  nosym 6d 10f
 ----------------------------------------------------------------------

 -----------------------
 endo-2 xp-pcm for eta=3
 -----------------------
 Symbolic Z-matrix:
 Charge =  0 Multiplicity = 1

 SCF Done:  E(UwB97XD) =  -466.815692628     A.U. after   14 cycles
 Normal termination of Gaussian 16 at Tue Aug  4 18:25:53 2020.

 ----------------------------------------------------------------------
 #p uwb97xd guess=mix def2tzvp # scrf=(iefpcm,solvent=Cyclohexane,read)
  nosym 6d 10f
 ----------------------------------------------------------------------

 -----------------------
 endo-2 xp-pcm for eta=3
 -----------------------
 Symbolic Z-matrix:
 Charge =  0 Multiplicity = 1

 SCF Done:  E(UwB97XD) =  -466.809475398     A.U. after   14 cycles
 Normal termination of Gaussian 16 at Tue Aug  4 18:30:29 2020.

 ----------------------------------------------------------------------
 #p uwb97xd guess=mix def2tzvp # scrf=(iefpcm,solvent=Cyclohexane,read)
  nosym 6d 10f
 ----------------------------------------------------------------------

 -----------------------
 endo-2 xp-pcm for eta=3
 -----------------------
 Symbolic Z-matrix:
 Charge =  0 Multiplicity = 1

 SCF Done:  E(UwB97XD) =  -466.798278997     A.U. after   14 cycles
 Normal termination of Gaussian 16 at Tue Aug  4 18:35:05 2020.

 ----------------------------------------------------------------------
 #p uwb97xd guess=mix def2tzvp # scrf=(iefpcm,solvent=Cyclohexane,read)
  nosym 6d 10f
 ----------------------------------------------------------------------

 -----------------------
 endo-2 xp-pcm for eta=3
 -----------------------
 Symbolic Z-matrix:
 Charge =  0 Multiplicity = 1

 SCF Done:  E(UwB97XD) =  -466.793191098     A.U. after   14 cycles
 Normal termination of Gaussian 16 at Tue Aug  4 18:39:43 2020.
 Gaussian 16:  ES64L-G16RevB.01 20-Dec-2017

                          Input orientation:
 ---------------------------------------------------------------------
 Center     Atomic      Atomic             Coordinates (Angstroms)
 Number     Number       Type             X           Y           Z
 ---------------------------------------------------------------------
      1          6           0       -3.119495   -0.424944    0.248623
      2          6           0       -0.424245   -0.121866   -0.714774
      3          1           0       -4.087821   -0.546420    0.718451
      4          1           0        0.329403   -0.107658   -1.504901
      5          6           0        1.115717    1.433579    0.663678
      6          6           0        0.424245    0.121866    0.714774
      7          1           0        0.572069    2.333570    0.922475
      8          1           0       -0.329403    0.107658    1.504901
      9          6           0        1.449468   -0.996358    0.973459
     10          1           0        1.860814   -0.868763    1.978620
     11          1           0        0.954950   -1.969025    0.953713
     12          6           0        2.394417    1.530763    0.127030
     13          1           0        2.830840    2.513824   -0.012217
     14          6           0        3.119495    0.424944   -0.248623
     15          1           0        4.087821    0.546420   -0.718451
     16          6           0        2.592866   -0.960276   -0.042448
     17          1           0        2.249153   -1.362262   -1.005025
     18          1           0        3.400748   -1.625122    0.274929
     19          6           0       -1.115717   -1.433580   -0.663678
     20          1           0       -0.572069   -2.333570   -0.922475
     21          6           0       -2.394417   -1.530763   -0.127030
     22          1           0       -2.830840   -2.513824    0.012217
     23          6           0       -1.449468    0.996358   -0.973459
     24          1           0       -0.954950    1.969025   -0.953713
     25          1           0       -1.860814    0.868763   -1.978620
     26          6           0       -2.592866    0.960276    0.042448
     27          1           0       -3.400748    1.625122   -0.274929
     28          1           0       -2.249153    1.362262    1.005025
 ---------------------------------------------------------------------

 SCF Done:  E(UwB97XD) =  -466.785904435     A.U. after   14 cycles

 Alpha  occ. eigenvalues --  -10.28511 -10.28358 -10.27603 -10.27394 -10.27214
 Alpha  occ. eigenvalues --  -10.27161 -10.26986 -10.26905 -10.26763 -10.26739
 Alpha  occ. eigenvalues --  -10.26669 -10.26663  -0.94076  -0.91685  -0.84462
 Alpha  occ. eigenvalues --   -0.83492  -0.82539  -0.80179  -0.70114  -0.69507
 Alpha  occ. eigenvalues --   -0.68278  -0.66594  -0.58950  -0.58126  -0.57613
 Alpha  occ. eigenvalues --   -0.55256  -0.52495  -0.51642  -0.49689  -0.48101
 Alpha  occ. eigenvalues --   -0.47777  -0.47249  -0.47044  -0.46214  -0.45166
 Alpha  occ. eigenvalues --   -0.43696  -0.40469  -0.39806  -0.38930  -0.38140
 Alpha  occ. eigenvalues --   -0.36944  -0.36155  -0.33311  -0.24115
 Alpha virt. eigenvalues --    0.01287   0.11655   0.13463   0.15404   0.15633
 Alpha virt. eigenvalues --    0.16593   0.17699   0.18478   0.19142   0.19427
 Alpha virt. eigenvalues --    0.19877   0.20250   0.21468   0.23030   0.23219

  Beta  occ. eigenvalues --  -10.28514 -10.28355 -10.27605 -10.27394 -10.27207
  Beta  occ. eigenvalues --  -10.27169 -10.26985 -10.26904 -10.26760 -10.26743
  Beta  occ. eigenvalues --  -10.26670 -10.26663  -0.94076  -0.91685  -0.84462
  Beta  occ. eigenvalues --   -0.83493  -0.82538  -0.80179  -0.70115  -0.69507
  Beta  occ. eigenvalues --   -0.68278  -0.66593  -0.58950  -0.58126  -0.57613
  Beta  occ. eigenvalues --   -0.55256  -0.52495  -0.51642  -0.49689  -0.48101
  Beta  occ. eigenvalues --   -0.47778  -0.47250  -0.47043  -0.46214  -0.45166
  Beta  occ. eigenvalues --   -0.43695  -0.40469  -0.39806  -0.38930  -0.38140
  Beta  occ. eigenvalues --   -0.36944  -0.36155  -0.33311  -0.24118
  Beta virt. eigenvalues --    0.01290   0.11653   0.13465   0.15403   0.15635
  Beta virt. eigenvalues --    0.16594   0.17699   0.18478   0.19142   0.19427
  Beta virt. eigenvalues --    0.19879   0.20247   0.21467   0.23031   0.23218

 Mulliken charges and spin densities:
               1          2
     1  C   -0.192725  -0.575897
     2  C   -0.161014   0.072211
     3  H    0.150598   0.023572
     4  H    0.157945  -0.008947
     5  C   -0.204947   0.616207
     6  C   -0.162101  -0.072176
     7  H    0.167889  -0.024855
     8  H    0.157611   0.008949
     9  C   -0.253278   0.010339
    10  H    0.135040  -0.000533
    11  H    0.148353  -0.000343
    12  C   -0.161715  -0.223465
    13  H    0.147981   0.009037
    14  C   -0.192615   0.575800
    15  H    0.150551  -0.023566
    16  C   -0.195422  -0.034840
    17  H    0.126365   0.032677
    18  H    0.135598   0.013854
    19  C   -0.206839  -0.616169
    20  H    0.168664   0.024820
    21  C   -0.160786   0.223540
    22  H    0.148033  -0.009037
    23  C   -0.250123  -0.010347
    24  H    0.148634   0.000344
    25  H    0.134193   0.000534
    26  C   -0.197557   0.034856
    27  H    0.135893  -0.013856
    28  H    0.125773  -0.032709
 Sum of Mulliken charges =  -0.00000   0.00000

 Dipole moment (field-independent basis, Debye):
    X=             -0.0001    Y=             -0.0035    Z=             -0.0056  Tot=              0.0066
 Quadrupole moment (field-independent basis, Debye-Ang):
   XX=            -69.9171   YY=            -69.5488   ZZ=            -74.8568
   XY=             -2.5647   XZ=             -2.9371   YZ=             -0.2224

 Normal termination of Gaussian 16 at Tue Aug  4 18:44:17 2020.
