 Gaussian 16, Revision B.01,

 ----------------------------------------------------------------------
 #p uwb97xd guess=mix def2tzvp # scrf=(iefpcm,solvent=Cyclohexane,read)
  nosym 6d 10f
 ----------------------------------------------------------------------

 -----------------------
 endo-2 xp-pcm for eta=3
 -----------------------
 Symbolic Z-matrix:
 Charge =  0 Multiplicity = 1

 SCF Done:  E(UwB97XD) =  -466.850975753     A.U. after   17 cycles
 Normal termination of Gaussian 16 at Mon Aug  3 17:58:10 2020.

 ----------------------------------------------------------------------
 #p uwb97xd guess=mix def2tzvp # scrf=(iefpcm,solvent=Cyclohexane,read)
  nosym 6d 10f
 ----------------------------------------------------------------------

 -----------------------
 endo-2 xp-pcm for eta=3
 -----------------------
 Symbolic Z-matrix:
 Charge =  0 Multiplicity = 1

 SCF Done:  E(UwB97XD) =  -466.847867937     A.U. after   17 cycles
 Normal termination of Gaussian 16 at Mon Aug  3 18:03:29 2020.

 ----------------------------------------------------------------------
 #p uwb97xd guess=mix def2tzvp # scrf=(iefpcm,solvent=Cyclohexane,read)
  nosym 6d 10f
 ----------------------------------------------------------------------

 -----------------------
 endo-2 xp-pcm for eta=3
 -----------------------
 Symbolic Z-matrix:
 Charge =  0 Multiplicity = 1

 SCF Done:  E(UwB97XD) =  -466.843086650     A.U. after   17 cycles
 Normal termination of Gaussian 16 at Mon Aug  3 18:08:44 2020.

 ----------------------------------------------------------------------
 #p uwb97xd guess=mix def2tzvp # scrf=(iefpcm,solvent=Cyclohexane,read)
  nosym 6d 10f
 ----------------------------------------------------------------------

 -----------------------
 endo-2 xp-pcm for eta=3
 -----------------------
 Symbolic Z-matrix:
 Charge =  0 Multiplicity = 1

 SCF Done:  E(UwB97XD) =  -466.836196423     A.U. after   17 cycles
 Normal termination of Gaussian 16 at Mon Aug  3 18:13:56 2020.

 ----------------------------------------------------------------------
 #p uwb97xd guess=mix def2tzvp # scrf=(iefpcm,solvent=Cyclohexane,read)
  nosym 6d 10f
 ----------------------------------------------------------------------

 -----------------------
 endo-2 xp-pcm for eta=3
 -----------------------
 Symbolic Z-matrix:
 Charge =  0 Multiplicity = 1

 SCF Done:  E(UwB97XD) =  -466.826677911     A.U. after   17 cycles
 Normal termination of Gaussian 16 at Mon Aug  3 18:19:10 2020.

 ----------------------------------------------------------------------
 #p uwb97xd guess=mix def2tzvp # scrf=(iefpcm,solvent=Cyclohexane,read)
  nosym 6d 10f
 ----------------------------------------------------------------------

 -----------------------
 endo-2 xp-pcm for eta=3
 -----------------------
 Symbolic Z-matrix:
 Charge =  0 Multiplicity = 1

 SCF Done:  E(UwB97XD) =  -466.820279065     A.U. after   17 cycles
 Normal termination of Gaussian 16 at Mon Aug  3 18:24:27 2020.
 Gaussian 16:  ES64L-G16RevB.01 20-Dec-2017

                          Input orientation:
 ---------------------------------------------------------------------
 Center     Atomic      Atomic             Coordinates (Angstroms)
 Number     Number       Type             X           Y           Z
 ---------------------------------------------------------------------
      1          6           0       -3.093267   -0.435973    0.300434
      2          6           0       -0.866740   -0.289096   -1.445431
      3          1           0       -3.986142   -0.504800    0.910939
      4          1           0        0.030308   -0.224943   -2.049778
      5          6           0        1.262349    1.452521    0.934535
      6          6           0        0.866740    0.289096    1.445431
      7          1           0        0.688360    2.355340    1.107147
      8          1           0       -0.030308    0.224943    2.049778
      9          6           0        1.683814   -0.957175    1.256502
     10          1           0        2.348618   -1.062059    2.124256
     11          1           0        1.035891   -1.835298    1.258793
     12          6           0        2.490317    1.538213    0.141849
     13          1           0        2.893062    2.516708   -0.090946
     14          6           0        3.093267    0.435973   -0.300434
     15          1           0        3.986142    0.504800   -0.910939
     16          6           0        2.511845   -0.924519   -0.029450
     17          1           0        1.879054   -1.202820   -0.880995
     18          1           0        3.302586   -1.675290    0.018282
     19          6           0       -1.262349   -1.452521   -0.934535
     20          1           0       -0.688360   -2.355340   -1.107147
     21          6           0       -2.490317   -1.538213   -0.141849
     22          1           0       -2.893062   -2.516708    0.090946
     23          6           0       -1.683814    0.957175   -1.256502
     24          1           0       -1.035891    1.835298   -1.258793
     25          1           0       -2.348618    1.062059   -2.124256
     26          6           0       -2.511845    0.924519    0.029450
     27          1           0       -3.302586    1.675290   -0.018282
     28          1           0       -1.879054    1.202820    0.880995
 ---------------------------------------------------------------------

 SCF Done:  E(UwB97XD) =  -466.812606331     A.U. after   17 cycles

 Alpha  occ. eigenvalues --  -10.27193 -10.27192 -10.27136 -10.27135 -10.27102
 Alpha  occ. eigenvalues --  -10.27101 -10.27100 -10.27096 -10.26802 -10.26799
 Alpha  occ. eigenvalues --  -10.26640 -10.26638  -0.93100  -0.92795  -0.83069
 Alpha  occ. eigenvalues --   -0.83066  -0.82935  -0.82722  -0.70249  -0.70186
 Alpha  occ. eigenvalues --   -0.66949  -0.66910  -0.58728  -0.58598  -0.56476
 Alpha  occ. eigenvalues --   -0.56020  -0.52299  -0.51650  -0.49863  -0.49805
 Alpha  occ. eigenvalues --   -0.48958  -0.48570  -0.46205  -0.46004  -0.44156
 Alpha  occ. eigenvalues --   -0.43870  -0.40138  -0.40043  -0.38544  -0.38243
 Alpha  occ. eigenvalues --   -0.38216  -0.38192  -0.28762  -0.27017
 Alpha virt. eigenvalues --    0.05184   0.05574   0.13258   0.14428   0.16284
 Alpha virt. eigenvalues --    0.16600   0.17081   0.18061   0.18230   0.18906
 Alpha virt. eigenvalues --    0.19760   0.19783   0.20113   0.21248   0.22951

  Beta  occ. eigenvalues --  -10.27193 -10.27192 -10.27136 -10.27135 -10.27102
  Beta  occ. eigenvalues --  -10.27101 -10.27100 -10.27096 -10.26802 -10.26799
  Beta  occ. eigenvalues --  -10.26640 -10.26638  -0.93100  -0.92795  -0.83069
  Beta  occ. eigenvalues --   -0.83066  -0.82935  -0.82722  -0.70249  -0.70186
  Beta  occ. eigenvalues --   -0.66949  -0.66910  -0.58728  -0.58598  -0.56476
  Beta  occ. eigenvalues --   -0.56020  -0.52299  -0.51650  -0.49863  -0.49805
  Beta  occ. eigenvalues --   -0.48958  -0.48570  -0.46205  -0.46004  -0.44156
  Beta  occ. eigenvalues --   -0.43870  -0.40138  -0.40043  -0.38544  -0.38243
  Beta  occ. eigenvalues --   -0.38216  -0.38192  -0.28762  -0.27017
  Beta virt. eigenvalues --    0.05184   0.05574   0.13258   0.14428   0.16284
  Beta virt. eigenvalues --    0.16600   0.17081   0.18061   0.18230   0.18906
  Beta virt. eigenvalues --    0.19760   0.19783   0.20113   0.21248   0.22951

 Mulliken charges and spin densities:
               1          2
     1  C   -0.204163   0.000001
     2  C   -0.202268  -0.000001
     3  H    0.148865  -0.000000
     4  H    0.170317   0.000000
     5  C   -0.188061   0.000001
     6  C   -0.203963  -0.000001
     7  H    0.166244   0.000000
     8  H    0.170181   0.000000
     9  C   -0.196853  -0.000001
    10  H    0.130317   0.000000
    11  H    0.135966   0.000000
    12  C   -0.167473  -0.000001
    13  H    0.152442  -0.000000
    14  C   -0.203606   0.000002
    15  H    0.148881  -0.000000
    16  C   -0.186253   0.000000
    17  H    0.109636   0.000000
    18  H    0.132566  -0.000000
    19  C   -0.189319   0.000002
    20  H    0.166140  -0.000000
    21  C   -0.164885  -0.000001
    22  H    0.150898   0.000000
    23  C   -0.196944   0.000001
    24  H    0.134947  -0.000000
    25  H    0.130128  -0.000000
    26  C   -0.185356  -0.000001
    27  H    0.132353   0.000000
    28  H    0.109265   0.000000
 Sum of Mulliken charges =  -0.00000   0.00000

 Dipole moment (field-independent basis, Debye):
    X=             -0.0004    Y=             -0.0043    Z=             -0.0001  Tot=              0.0044
 Quadrupole moment (field-independent basis, Debye-Ang):
   XX=            -70.9615   YY=            -68.0142   ZZ=            -74.4501
   XY=             -3.1769   XZ=             -4.1548   YZ=             -1.6275

 Normal termination of Gaussian 16 at Mon Aug  3 18:29:40 2020.
