 Gaussian 16, Revision B.01,

 ----------------------------------------------------------------------
 #p uwb97xd guess=mix def2tzvp # scrf=(iefpcm,solvent=Cyclohexane,read)
  nosym 6d 10f
 ----------------------------------------------------------------------

 -----------------------
 endo-2 xp-pcm for eta=3
 -----------------------
 Symbolic Z-matrix:
 Charge =  0 Multiplicity = 1

 SCF Done:  E(UwB97XD) =  -466.805763039     A.U. after   19 cycles
 Normal termination of Gaussian 16 at Tue Aug  4 13:53:39 2020.

 ----------------------------------------------------------------------
 #p uwb97xd guess=mix def2tzvp # scrf=(iefpcm,solvent=Cyclohexane,read)
  nosym 6d 10f
 ----------------------------------------------------------------------

 -----------------------
 endo-2 xp-pcm for eta=3
 -----------------------
 Symbolic Z-matrix:
 Charge =  0 Multiplicity = 1

 SCF Done:  E(UwB97XD) =  -466.803281099     A.U. after   19 cycles
 Normal termination of Gaussian 16 at Tue Aug  4 13:59:56 2020.

 ----------------------------------------------------------------------
 #p uwb97xd guess=mix def2tzvp # scrf=(iefpcm,solvent=Cyclohexane,read)
  nosym 6d 10f
 ----------------------------------------------------------------------

 -----------------------
 endo-2 xp-pcm for eta=3
 -----------------------
 Symbolic Z-matrix:
 Charge =  0 Multiplicity = 1

 SCF Done:  E(UwB97XD) =  -466.798647012     A.U. after   19 cycles
 Normal termination of Gaussian 16 at Tue Aug  4 14:06:19 2020.

 ----------------------------------------------------------------------
 #p uwb97xd guess=mix def2tzvp # scrf=(iefpcm,solvent=Cyclohexane,read)
  nosym 6d 10f
 ----------------------------------------------------------------------

 -----------------------
 endo-2 xp-pcm for eta=3
 -----------------------
 Symbolic Z-matrix:
 Charge =  0 Multiplicity = 1

 SCF Done:  E(UwB97XD) =  -466.790694515     A.U. after   18 cycles
 Normal termination of Gaussian 16 at Tue Aug  4 14:12:11 2020.

 ----------------------------------------------------------------------
 #p uwb97xd guess=mix def2tzvp # scrf=(iefpcm,solvent=Cyclohexane,read)
  nosym 6d 10f
 ----------------------------------------------------------------------

 -----------------------
 endo-2 xp-pcm for eta=3
 -----------------------
 Symbolic Z-matrix:
 Charge =  0 Multiplicity = 1

 SCF Done:  E(UwB97XD) =  -466.781307546     A.U. after   18 cycles
 Normal termination of Gaussian 16 at Tue Aug  4 14:18:01 2020.

 ----------------------------------------------------------------------
 #p uwb97xd guess=mix def2tzvp # scrf=(iefpcm,solvent=Cyclohexane,read)
  nosym 6d 10f
 ----------------------------------------------------------------------

 -----------------------
 endo-2 xp-pcm for eta=3
 -----------------------
 Symbolic Z-matrix:
 Charge =  0 Multiplicity = 1

 SCF Done:  E(UwB97XD) =  -466.774864428     A.U. after   18 cycles
 Normal termination of Gaussian 16 at Tue Aug  4 14:23:54 2020.
 Gaussian 16:  ES64L-G16RevB.01 20-Dec-2017

                          Input orientation:
 ---------------------------------------------------------------------
 Center     Atomic      Atomic             Coordinates (Angstroms)
 Number     Number       Type             X           Y           Z
 ---------------------------------------------------------------------
      1          6           0       -3.118670   -0.432956    0.247226
      2          6           0       -0.509469   -0.167984   -0.858002
      3          1           0       -4.083546   -0.549105    0.726486
      4          1           0        0.360157   -0.116106   -1.503444
      5          6           0        1.101339    1.415489    0.682520
      6          6           0        0.509469    0.167984    0.858002
      7          1           0        0.540414    2.319583    0.882812
      8          1           0       -0.360157    0.116106    1.503444
      9          6           0        1.463271   -0.999883    0.987744
     10          1           0        1.900513   -0.942148    1.990648
     11          1           0        0.926831   -1.947518    0.934189
     12          6           0        2.408817    1.521066    0.116868
     13          1           0        2.824758    2.508464   -0.047474
     14          6           0        3.118670    0.432956   -0.247226
     15          1           0        4.083546    0.549105   -0.726486
     16          6           0        2.592153   -0.958523   -0.043594
     17          1           0        2.249577   -1.356847   -1.007017
     18          1           0        3.401074   -1.622064    0.271288
     19          6           0       -1.101339   -1.415489   -0.682520
     20          1           0       -0.540414   -2.319583   -0.882812
     21          6           0       -2.408817   -1.521066   -0.116868
     22          1           0       -2.824758   -2.508464    0.047474
     23          6           0       -1.463271    0.999883   -0.987744
     24          1           0       -0.926831    1.947518   -0.934189
     25          1           0       -1.900513    0.942148   -1.990648
     26          6           0       -2.592153    0.958523    0.043594
     27          1           0       -3.401074    1.622064   -0.271288
     28          1           0       -2.249577    1.356847    1.007017
 ---------------------------------------------------------------------

 SCF Done:  E(UwB97XD) =  -466.767849548     A.U. after   18 cycles

 Alpha  occ. eigenvalues --  -10.28597 -10.28247 -10.27314 -10.27312 -10.27277
 Alpha  occ. eigenvalues --  -10.26960 -10.26946 -10.26926 -10.26874 -10.26825
 Alpha  occ. eigenvalues --  -10.26690 -10.26312  -0.93926  -0.92194  -0.84063
 Alpha  occ. eigenvalues --   -0.83408  -0.82605  -0.81573  -0.70333  -0.69337
 Alpha  occ. eigenvalues --   -0.68285  -0.66834  -0.59009  -0.58529  -0.57143
 Alpha  occ. eigenvalues --   -0.55326  -0.52290  -0.52114  -0.49871  -0.49104
 Alpha  occ. eigenvalues --   -0.48380  -0.47262  -0.46825  -0.46259  -0.45385
 Alpha  occ. eigenvalues --   -0.43645  -0.40394  -0.40013  -0.38810  -0.38553
 Alpha  occ. eigenvalues --   -0.38082  -0.36627  -0.30932  -0.23099
 Alpha virt. eigenvalues --    0.00736   0.09849   0.13352   0.15455   0.15878
 Alpha virt. eigenvalues --    0.16387   0.17687   0.18553   0.19064   0.19363
 Alpha virt. eigenvalues --    0.19416   0.20298   0.20757   0.21703   0.23051

  Beta  occ. eigenvalues --  -10.28593 -10.28252 -10.27313 -10.27313 -10.27278
  Beta  occ. eigenvalues --  -10.26958 -10.26952 -10.26920 -10.26872 -10.26826
  Beta  occ. eigenvalues --  -10.26691 -10.26311  -0.93926  -0.92193  -0.84063
  Beta  occ. eigenvalues --   -0.83409  -0.82604  -0.81573  -0.70333  -0.69336
  Beta  occ. eigenvalues --   -0.68286  -0.66833  -0.59010  -0.58528  -0.57143
  Beta  occ. eigenvalues --   -0.55325  -0.52292  -0.52112  -0.49872  -0.49104
  Beta  occ. eigenvalues --   -0.48380  -0.47262  -0.46826  -0.46259  -0.45385
  Beta  occ. eigenvalues --   -0.43645  -0.40395  -0.40012  -0.38811  -0.38552
  Beta  occ. eigenvalues --   -0.38082  -0.36627  -0.30932  -0.23098
  Beta virt. eigenvalues --    0.00735   0.09849   0.13353   0.15455   0.15877
  Beta virt. eigenvalues --    0.16387   0.17687   0.18553   0.19064   0.19365
  Beta virt. eigenvalues --    0.19416   0.20296   0.20756   0.21703   0.23050

 Mulliken charges and spin densities:
               1          2
     1  C   -0.202633   0.318028
     2  C   -0.203008  -0.219495
     3  H    0.149213  -0.013086
     4  H    0.177479   0.012198
     5  C   -0.171202  -0.421674
     6  C   -0.202723   0.219540
     7  H    0.163929   0.017155
     8  H    0.176901  -0.012181
     9  C   -0.238825  -0.009456
    10  H    0.134292   0.007096
    11  H    0.150655   0.002827
    12  C   -0.173397   0.161914
    13  H    0.149693  -0.006256
    14  C   -0.202885  -0.318061
    15  H    0.149202   0.013084
    16  C   -0.198478   0.021359
    17  H    0.127017  -0.017289
    18  H    0.135813  -0.007848
    19  C   -0.170939   0.421669
    20  H    0.163636  -0.017164
    21  C   -0.173618  -0.161885
    22  H    0.149822   0.006257
    23  C   -0.237363   0.009379
    24  H    0.151400  -0.002799
    25  H    0.133265  -0.007093
    26  C   -0.199721  -0.021362
    27  H    0.135778   0.007845
    28  H    0.126697   0.017296
 Sum of Mulliken charges =  -0.00000  -0.00000

 Dipole moment (field-independent basis, Debye):
    X=             -0.0006    Y=              0.0023    Z=             -0.0060  Tot=              0.0065
 Quadrupole moment (field-independent basis, Debye-Ang):
   XX=            -70.4415   YY=            -68.9168   ZZ=            -75.1614
   XY=             -3.0832   XZ=             -3.1487   YZ=             -0.8106

 Normal termination of Gaussian 16 at Tue Aug  4 14:29:44 2020.
