 Gaussian 16, Revision B.01,
 Gaussian 16:  ES64L-G16RevB.01 20-Dec-2017

 ----------------------------------------------------------------------
 #p uwb97xd guess=mix def2tzvp # scrf=(iefpcm,solvent=Cyclohexane,read)
  nosym 6d 10f
 ----------------------------------------------------------------------

 -----------------------
 endo-2 xp-pcm for eta=3
 -----------------------
 Symbolic Z-matrix:
 Charge =  0 Multiplicity = 1

                          Input orientation:
 ---------------------------------------------------------------------
 Center     Atomic      Atomic             Coordinates (Angstroms)
 Number     Number       Type             X           Y           Z
 ---------------------------------------------------------------------
      1          6           0       -3.126543   -0.441233    0.268190
      2          6           0       -0.754024   -0.256533   -1.270411
      3          1           0       -4.062711   -0.529769    0.807219
      4          1           0        0.190409   -0.176659   -1.794641
      5          6           0        1.183128    1.429264    0.813376
      6          6           0        0.754024    0.256533    1.270411
      7          1           0        0.591290    2.326044    0.953170
      8          1           0       -0.190409    0.176659    1.794641
      9          6           0        1.584536   -0.987345    1.138633
     10          1           0        2.135575   -1.119037    2.078702
     11          1           0        0.936296   -1.859379    1.043739
     12          6           0        2.464520    1.531740    0.114055
     13          1           0        2.863784    2.516400   -0.097950
     14          6           0        3.126543    0.441233   -0.268190
     15          1           0        4.062711    0.529769   -0.807219
     16          6           0        2.569963   -0.936686   -0.033648
     17          1           0        2.075826   -1.268120   -0.955200
     18          1           0        3.381182   -1.646980    0.137036
     19          6           0       -1.183128   -1.429264   -0.813376
     20          1           0       -0.591290   -2.326044   -0.953170
     21          6           0       -2.464520   -1.531740   -0.114055
     22          1           0       -2.863784   -2.516400    0.097950
     23          6           0       -1.584536    0.987345   -1.138633
     24          1           0       -0.936296    1.859379   -1.043739
     25          1           0       -2.135575    1.119037   -2.078702
     26          6           0       -2.569963    0.936686    0.033648
     27          1           0       -3.381182    1.646980   -0.137036
     28          1           0       -2.075826    1.268120    0.955200
 ---------------------------------------------------------------------

 SCF Done:  E(UwB97XD) =  -466.858099295     A.U. after   18 cycles

 Alpha  occ. eigenvalues --  -10.28526 -10.28525 -10.28317 -10.28317 -10.28309
 Alpha  occ. eigenvalues --  -10.28309 -10.28216 -10.28215 -10.28020 -10.28020
 Alpha  occ. eigenvalues --  -10.27632 -10.27632  -0.94210  -0.93674  -0.84289
 Alpha  occ. eigenvalues --   -0.84195  -0.83896  -0.83751  -0.71458  -0.71257
 Alpha  occ. eigenvalues --   -0.68029  -0.67975  -0.59803  -0.59658  -0.57432
 Alpha  occ. eigenvalues --   -0.56764  -0.53641  -0.52817  -0.51015  -0.50966
 Alpha  occ. eigenvalues --   -0.49958  -0.49483  -0.47402  -0.46969  -0.45222
 Alpha  occ. eigenvalues --   -0.45119  -0.41329  -0.41067  -0.39770  -0.39339
 Alpha  occ. eigenvalues --   -0.39284  -0.39052  -0.29845  -0.27688
 Alpha virt. eigenvalues --    0.03539   0.04852   0.10512   0.12255   0.13339
 Alpha virt. eigenvalues --    0.14421   0.14800   0.15602   0.15672   0.15845
 Alpha virt. eigenvalues --    0.16800   0.16893   0.17153   0.18203   0.19943

  Beta  occ. eigenvalues --  -10.28526 -10.28525 -10.28317 -10.28317 -10.28309
  Beta  occ. eigenvalues --  -10.28309 -10.28216 -10.28215 -10.28020 -10.28020
  Beta  occ. eigenvalues --  -10.27632 -10.27632  -0.94210  -0.93674  -0.84289
  Beta  occ. eigenvalues --   -0.84195  -0.83896  -0.83751  -0.71458  -0.71257
  Beta  occ. eigenvalues --   -0.68029  -0.67975  -0.59803  -0.59658  -0.57432
  Beta  occ. eigenvalues --   -0.56764  -0.53641  -0.52817  -0.51015  -0.50966
  Beta  occ. eigenvalues --   -0.49958  -0.49483  -0.47402  -0.46969  -0.45222
  Beta  occ. eigenvalues --   -0.45119  -0.41329  -0.41067  -0.39770  -0.39339
  Beta  occ. eigenvalues --   -0.39284  -0.39052  -0.29845  -0.27688
  Beta virt. eigenvalues --    0.03539   0.04852   0.10512   0.12255   0.13339
  Beta virt. eigenvalues --    0.14421   0.14800   0.15602   0.15672   0.15845
  Beta virt. eigenvalues --    0.16800   0.16893   0.17153   0.18203   0.19943

 Mulliken charges and spin densities:
               1          2
     1  C   -0.210036   0.000000
     2  C   -0.182641  -0.000000
     3  H    0.142069  -0.000000
     4  H    0.159363   0.000000
     5  C   -0.168791   0.000000
     6  C   -0.182636  -0.000000
     7  H    0.153096  -0.000000
     8  H    0.159606  -0.000000
     9  C   -0.197531   0.000000
    10  H    0.118434  -0.000000
    11  H    0.135351  -0.000000
    12  C   -0.156715  -0.000000
    13  H    0.145612   0.000000
    14  C   -0.209847  -0.000000
    15  H    0.142060   0.000000
    16  C   -0.174644  -0.000000
    17  H    0.110576   0.000000
    18  H    0.125433   0.000000
    19  C   -0.168687   0.000000
    20  H    0.153174   0.000000
    21  C   -0.156430  -0.000000
    22  H    0.145584  -0.000000
    23  C   -0.197646  -0.000000
    24  H    0.135429   0.000000
    25  H    0.118403   0.000000
    26  C   -0.174626   0.000000
    27  H    0.125444  -0.000000
    28  H    0.110595  -0.000000
 Sum of Mulliken charges =  -0.00000  -0.00000

 Dipole moment (field-independent basis, Debye):
    X=             -0.0005    Y=              0.0004    Z=              0.0007  Tot=              0.0009
 Quadrupole moment (field-independent basis, Debye-Ang):
   XX=            -72.4873   YY=            -69.7972   ZZ=            -76.8080
   XY=             -3.2872   XZ=             -3.8336   YZ=             -1.7326

 Normal termination of Gaussian 16 at Mon Aug  3 14:33:06 2020.
