 Gaussian 16, Revision B.01,

 ----------------------------------------------------------------------
 #p uwb97xd guess=mix def2tzvp # scrf=(iefpcm,solvent=Cyclohexane,read)
  nosym 6d 10f
 ----------------------------------------------------------------------

 -----------------------
 endo-2 xp-pcm for eta=3
 -----------------------
 Symbolic Z-matrix:
 Charge =  0 Multiplicity = 1

 SCF Done:  E(UwB97XD) =  -466.847662523     A.U. after   18 cycles
 Normal termination of Gaussian 16 at Tue Aug  4 02:05:36 2020.

 ----------------------------------------------------------------------
 #p uwb97xd guess=mix def2tzvp # scrf=(iefpcm,solvent=Cyclohexane,read)
  nosym 6d 10f
 ----------------------------------------------------------------------

 -----------------------
 endo-2 xp-pcm for eta=3
 -----------------------
 Symbolic Z-matrix:
 Charge =  0 Multiplicity = 1

 SCF Done:  E(UwB97XD) =  -466.843786136     A.U. after   18 cycles
 Normal termination of Gaussian 16 at Tue Aug  4 02:11:15 2020.

 ----------------------------------------------------------------------
 #p uwb97xd guess=mix def2tzvp # scrf=(iefpcm,solvent=Cyclohexane,read)
  nosym 6d 10f
 ----------------------------------------------------------------------

 -----------------------
 endo-2 xp-pcm for eta=3
 -----------------------
 Symbolic Z-matrix:
 Charge =  0 Multiplicity = 1

 SCF Done:  E(UwB97XD) =  -466.839031528     A.U. after   18 cycles
 Normal termination of Gaussian 16 at Tue Aug  4 02:16:53 2020.

 ----------------------------------------------------------------------
 #p uwb97xd guess=mix def2tzvp # scrf=(iefpcm,solvent=Cyclohexane,read)
  nosym 6d 10f
 ----------------------------------------------------------------------

 -----------------------
 endo-2 xp-pcm for eta=3
 -----------------------
 Symbolic Z-matrix:
 Charge =  0 Multiplicity = 1

 SCF Done:  E(UwB97XD) =  -466.831442210     A.U. after   18 cycles
 Normal termination of Gaussian 16 at Tue Aug  4 02:22:32 2020.

 ----------------------------------------------------------------------
 #p uwb97xd guess=mix def2tzvp # scrf=(iefpcm,solvent=Cyclohexane,read)
  nosym 6d 10f
 ----------------------------------------------------------------------

 -----------------------
 endo-2 xp-pcm for eta=3
 -----------------------
 Symbolic Z-matrix:
 Charge =  0 Multiplicity = 1

 SCF Done:  E(UwB97XD) =  -466.823229907     A.U. after   18 cycles
 Normal termination of Gaussian 16 at Tue Aug  4 02:28:13 2020.

 ----------------------------------------------------------------------
 #p uwb97xd guess=mix def2tzvp # scrf=(iefpcm,solvent=Cyclohexane,read)
  nosym 6d 10f
 ----------------------------------------------------------------------

 -----------------------
 endo-2 xp-pcm for eta=3
 -----------------------
 Symbolic Z-matrix:
 Charge =  0 Multiplicity = 1

 SCF Done:  E(UwB97XD) =  -466.816329357     A.U. after   18 cycles
 Normal termination of Gaussian 16 at Tue Aug  4 02:33:52 2020.
 Gaussian 16:  ES64L-G16RevB.01 20-Dec-2017

                          Input orientation:
 ---------------------------------------------------------------------
 Center     Atomic      Atomic             Coordinates (Angstroms)
 Number     Number       Type             X           Y           Z
 ---------------------------------------------------------------------
      1          6           0       -3.127568   -0.441485    0.263433
      2          6           0       -0.731288   -0.250831   -1.236755
      3          1           0       -4.070209   -0.533386    0.790505
      4          1           0        0.219568   -0.168512   -1.748484
      5          6           0        1.167775    1.425763    0.792854
      6          6           0        0.731288    0.250831    1.236755
      7          1           0        0.574947    2.322303    0.929282
      8          1           0       -0.219568    0.168512    1.748484
      9          6           0        1.564621   -0.992103    1.115813
     10          1           0        2.097096   -1.123993    2.066407
     11          1           0        0.920060   -1.865000    1.008560
     12          6           0        2.457254    1.530153    0.109662
     13          1           0        2.856885    2.515574   -0.098107
     14          6           0        3.127568    0.441485   -0.263433
     15          1           0        4.070209    0.533386   -0.790505
     16          6           0        2.575144   -0.939221   -0.035211
     17          1           0        2.106401   -1.279780   -0.966682
     18          1           0        3.387766   -1.642218    0.157850
     19          6           0       -1.167775   -1.425763   -0.792854
     20          1           0       -0.574947   -2.322303   -0.929282
     21          6           0       -2.457254   -1.530153   -0.109662
     22          1           0       -2.856885   -2.515574    0.098107
     23          6           0       -1.564621    0.992103   -1.115813
     24          1           0       -0.920060    1.865000   -1.008560
     25          1           0       -2.097096    1.123993   -2.066407
     26          6           0       -2.575144    0.939221    0.035211
     27          1           0       -3.387766    1.642218   -0.157850
     28          1           0       -2.106402    1.279780    0.966682
 ---------------------------------------------------------------------

 SCF Done:  E(UwB97XD) =  -466.808972503     A.U. after   18 cycles

 Alpha  occ. eigenvalues --  -10.27320 -10.27312 -10.27095 -10.27092 -10.27067
 Alpha  occ. eigenvalues --  -10.27066 -10.27053 -10.27053 -10.26782 -10.26781
 Alpha  occ. eigenvalues --  -10.26411 -10.26407  -0.93187  -0.92581  -0.83301
 Alpha  occ. eigenvalues --   -0.83166  -0.82814  -0.82681  -0.70454  -0.70179
 Alpha  occ. eigenvalues --   -0.67020  -0.66932  -0.58748  -0.58604  -0.56391
 Alpha  occ. eigenvalues --   -0.55659  -0.52631  -0.51774  -0.49944  -0.49906
 Alpha  occ. eigenvalues --   -0.48852  -0.48348  -0.46320  -0.45836  -0.44217
 Alpha  occ. eigenvalues --   -0.44005  -0.40258  -0.39964  -0.38707  -0.38321
 Alpha  occ. eigenvalues --   -0.38199  -0.37982  -0.28832  -0.26531
 Alpha virt. eigenvalues --    0.04662   0.06201   0.13332   0.14759   0.16477
 Alpha virt. eigenvalues --    0.16888   0.17324   0.18122   0.18488   0.19067
 Alpha virt. eigenvalues --    0.19498   0.19535   0.20116   0.21224   0.22984

  Beta  occ. eigenvalues --  -10.27320 -10.27312 -10.27095 -10.27092 -10.27067
  Beta  occ. eigenvalues --  -10.27066 -10.27053 -10.27053 -10.26782 -10.26781
  Beta  occ. eigenvalues --  -10.26411 -10.26407  -0.93187  -0.92581  -0.83301
  Beta  occ. eigenvalues --   -0.83166  -0.82814  -0.82681  -0.70454  -0.70179
  Beta  occ. eigenvalues --   -0.67020  -0.66932  -0.58748  -0.58604  -0.56391
  Beta  occ. eigenvalues --   -0.55659  -0.52631  -0.51774  -0.49944  -0.49906
  Beta  occ. eigenvalues --   -0.48852  -0.48348  -0.46320  -0.45836  -0.44217
  Beta  occ. eigenvalues --   -0.44005  -0.40258  -0.39964  -0.38707  -0.38321
  Beta  occ. eigenvalues --   -0.38199  -0.37982  -0.28832  -0.26531
  Beta virt. eigenvalues --    0.04662   0.06201   0.13332   0.14759   0.16477
  Beta virt. eigenvalues --    0.16888   0.17324   0.18122   0.18488   0.19067
  Beta virt. eigenvalues --    0.19498   0.19535   0.20116   0.21224   0.22984

 Mulliken charges and spin densities:
               1          2
     1  C   -0.203636   0.000000
     2  C   -0.200921  -0.000000
     3  H    0.148241  -0.000000
     4  H    0.172012   0.000000
     5  C   -0.189472   0.000000
     6  C   -0.196936  -0.000000
     7  H    0.167385  -0.000000
     8  H    0.170904  -0.000000
     9  C   -0.221846   0.000000
    10  H    0.131389  -0.000000
    11  H    0.144835  -0.000000
    12  C   -0.163292  -0.000000
    13  H    0.151848   0.000000
    14  C   -0.201807  -0.000000
    15  H    0.148195   0.000000
    16  C   -0.193597  -0.000000
    17  H    0.119914   0.000000
    18  H    0.132753   0.000000
    19  C   -0.189711   0.000000
    20  H    0.168800   0.000000
    21  C   -0.159655  -0.000000
    22  H    0.151380  -0.000000
    23  C   -0.220893  -0.000000
    24  H    0.144592   0.000000
    25  H    0.131263   0.000000
    26  C   -0.193795   0.000000
    27  H    0.133262  -0.000000
    28  H    0.118787  -0.000000
 Sum of Mulliken charges =  -0.00000   0.00000

 Dipole moment (field-independent basis, Debye):
    X=              0.0011    Y=             -0.0061    Z=             -0.0063  Tot=              0.0088
 Quadrupole moment (field-independent basis, Debye-Ang):
   XX=            -70.2614   YY=            -68.1324   ZZ=            -75.3514
   XY=             -3.3733   XZ=             -3.7318   YZ=             -1.7258

 Normal termination of Gaussian 16 at Tue Aug  4 02:39:29 2020.
