 Gaussian 16, Revision B.01,
 Gaussian 16:  ES64L-G16RevB.01 20-Dec-2017

 ----------------------------------------------------------------------
 #p uwb97xd guess=mix def2tzvp # scrf=(iefpcm,solvent=Cyclohexane,read)
  nosym 6d 10f
 ----------------------------------------------------------------------

 -----------------------
 endo-2 xp-pcm for eta=3
 -----------------------
 Symbolic Z-matrix:
 Charge =  0 Multiplicity = 1

                          Input orientation:
 ---------------------------------------------------------------------
 Center     Atomic      Atomic             Coordinates (Angstroms)
 Number     Number       Type             X           Y           Z
 ---------------------------------------------------------------------
      1          6           0       -3.119867   -0.423059    0.242362
      2          6           0       -0.399464   -0.121031   -0.665456
      3          1           0       -4.102983   -0.545295    0.679967
      4          1           0        0.332815   -0.116775   -1.477337
      5          6           0        1.102005    1.439151    0.627583
      6          6           0        0.399464    0.121031    0.665456
      7          1           0        0.570347    2.335794    0.919988
      8          1           0       -0.332815    0.116775    1.477337
      9          6           0        1.424818   -0.986752    0.942031
     10          1           0        1.823276   -0.830898    1.947861
     11          1           0        0.940841   -1.964613    0.940308
     12          6           0        2.393506    1.531561    0.139068
     13          1           0        2.848769    2.511456    0.044365
     14          6           0        3.119867    0.423059   -0.242362
     15          1           0        4.102983    0.545295   -0.679967
     16          6           0        2.585761   -0.961115   -0.052535
     17          1           0        2.266469   -1.369268   -1.020958
     18          1           0        3.384717   -1.624588    0.289923
     19          6           0       -1.102005   -1.439151   -0.627583
     20          1           0       -0.570347   -2.335794   -0.919988
     21          6           0       -2.393506   -1.531561   -0.139068
     22          1           0       -2.848769   -2.511456   -0.044365
     23          6           0       -1.424818    0.986752   -0.942031
     24          1           0       -0.940841    1.964613   -0.940309
     25          1           0       -1.823276    0.830898   -1.947861
     26          6           0       -2.585761    0.961115    0.052535
     27          1           0       -3.384717    1.624588   -0.289923
     28          1           0       -2.266469    1.369268    1.020958
 ---------------------------------------------------------------------

 SCF Done:  E(UwB97XD) =  -466.837058228     A.U. after   15 cycles

 Alpha  occ. eigenvalues --  -10.29019 -10.28896 -10.28868 -10.28557 -10.28420
 Alpha  occ. eigenvalues --  -10.28372 -10.28210 -10.28142 -10.27888 -10.27835
 Alpha  occ. eigenvalues --  -10.27761 -10.27744  -0.95645  -0.92711  -0.86091
 Alpha  occ. eigenvalues --   -0.84629  -0.83574  -0.80973  -0.71561  -0.70752
 Alpha  occ. eigenvalues --   -0.69183  -0.67549  -0.60241  -0.59357  -0.58747
 Alpha  occ. eigenvalues --   -0.56188  -0.53684  -0.52654  -0.51023  -0.49070
 Alpha  occ. eigenvalues --   -0.49040  -0.48667  -0.48314  -0.47415  -0.45904
 Alpha  occ. eigenvalues --   -0.44715  -0.41407  -0.40893  -0.40053  -0.38895
 Alpha  occ. eigenvalues --   -0.37735  -0.37406  -0.34751  -0.25292
 Alpha virt. eigenvalues --    0.00168   0.10579   0.10616   0.12314   0.13159
 Alpha virt. eigenvalues --    0.14040   0.14776   0.15364   0.16033   0.16290
 Alpha virt. eigenvalues --    0.17029   0.17166   0.18406   0.19998   0.20180

  Beta  occ. eigenvalues --  -10.29019 -10.28896 -10.28869 -10.28558 -10.28420
  Beta  occ. eigenvalues --  -10.28372 -10.28209 -10.28140 -10.27889 -10.27834
  Beta  occ. eigenvalues --  -10.27761 -10.27744  -0.95645  -0.92711  -0.86091
  Beta  occ. eigenvalues --   -0.84629  -0.83574  -0.80973  -0.71561  -0.70752
  Beta  occ. eigenvalues --   -0.69183  -0.67548  -0.60241  -0.59357  -0.58747
  Beta  occ. eigenvalues --   -0.56188  -0.53684  -0.52654  -0.51023  -0.49070
  Beta  occ. eigenvalues --   -0.49040  -0.48667  -0.48314  -0.47415  -0.45904
  Beta  occ. eigenvalues --   -0.44715  -0.41408  -0.40893  -0.40053  -0.38894
  Beta  occ. eigenvalues --   -0.37735  -0.37407  -0.34750  -0.25293
  Beta virt. eigenvalues --    0.00169   0.10579   0.10615   0.12314   0.13159
  Beta virt. eigenvalues --    0.14040   0.14776   0.15364   0.16033   0.16290
  Beta virt. eigenvalues --    0.17030   0.17165   0.18406   0.19998   0.20180

 Mulliken charges and spin densities:
               1          2
     1  C   -0.199177  -0.602151
     2  C   -0.101955   0.049519
     3  H    0.144666   0.025296
     4  H    0.129605  -0.008302
     5  C   -0.209255   0.617365
     6  C   -0.101916  -0.049521
     7  H    0.161184  -0.025813
     8  H    0.129529   0.008303
     9  C   -0.223250   0.010738
    10  H    0.118150  -0.000212
    11  H    0.135672  -0.000439
    12  C   -0.161295  -0.226139
    13  H    0.141602   0.009438
    14  C   -0.199253   0.602157
    15  H    0.144664  -0.025297
    16  C   -0.179503  -0.037266
    17  H    0.116157   0.033309
    18  H    0.127520   0.014737
    19  C   -0.209212  -0.617368
    20  H    0.161155   0.025813
    21  C   -0.161452   0.226136
    22  H    0.141596  -0.009438
    23  C   -0.223274  -0.010735
    24  H    0.135603   0.000439
    25  H    0.118269   0.000212
    26  C   -0.179529   0.037267
    27  H    0.127529  -0.014737
    28  H    0.116166  -0.033311
 Sum of Mulliken charges =  -0.00000   0.00000

 Dipole moment (field-independent basis, Debye):
    X=              0.0002    Y=              0.0002    Z=              0.0000  Tot=              0.0003
 Quadrupole moment (field-independent basis, Debye-Ang):
   XX=            -71.8670   YY=            -71.2169   ZZ=            -76.3527
   XY=             -2.3643   XZ=             -2.5908   YZ=              0.1754

 Normal termination of Gaussian 16 at Mon Aug  3 17:07:15 2020.
