 Gaussian 16, Revision B.01,

 ----------------------------------------------------------------------
 #p uwb97xd guess=mix def2tzvp # scrf=(iefpcm,solvent=Cyclohexane,read)
  nosym 6d 10f
 ----------------------------------------------------------------------

 -----------------------
 endo-2 xp-pcm for eta=3
 -----------------------
 Symbolic Z-matrix:
 Charge =  0 Multiplicity = 1

 SCF Done:  E(UwB97XD) =  -466.827282716     A.U. after   15 cycles
 Normal termination of Gaussian 16 at Tue Aug  4 19:55:02 2020.

 ----------------------------------------------------------------------
 #p uwb97xd guess=mix def2tzvp # scrf=(iefpcm,solvent=Cyclohexane,read)
  nosym 6d 10f
 ----------------------------------------------------------------------

 -----------------------
 endo-2 xp-pcm for eta=3
 -----------------------
 Symbolic Z-matrix:
 Charge =  0 Multiplicity = 1

 SCF Done:  E(UwB97XD) =  -466.824885205     A.U. after   15 cycles
 Normal termination of Gaussian 16 at Tue Aug  4 19:59:55 2020.

 ----------------------------------------------------------------------
 #p uwb97xd guess=mix def2tzvp # scrf=(iefpcm,solvent=Cyclohexane,read)
  nosym 6d 10f
 ----------------------------------------------------------------------

 -----------------------
 endo-2 xp-pcm for eta=3
 -----------------------
 Symbolic Z-matrix:
 Charge =  0 Multiplicity = 1

 SCF Done:  E(UwB97XD) =  -466.820059620     A.U. after   15 cycles
 Normal termination of Gaussian 16 at Tue Aug  4 20:04:54 2020.

 ----------------------------------------------------------------------
 #p uwb97xd guess=mix def2tzvp # scrf=(iefpcm,solvent=Cyclohexane,read)
  nosym 6d 10f
 ----------------------------------------------------------------------

 -----------------------
 endo-2 xp-pcm for eta=3
 -----------------------
 Symbolic Z-matrix:
 Charge =  0 Multiplicity = 1

 SCF Done:  E(UwB97XD) =  -466.813029330     A.U. after   15 cycles
 Normal termination of Gaussian 16 at Tue Aug  4 20:09:47 2020.

 ----------------------------------------------------------------------
 #p uwb97xd guess=mix def2tzvp # scrf=(iefpcm,solvent=Cyclohexane,read)
  nosym 6d 10f
 ----------------------------------------------------------------------

 -----------------------
 endo-2 xp-pcm for eta=3
 -----------------------
 Symbolic Z-matrix:
 Charge =  0 Multiplicity = 1

 SCF Done:  E(UwB97XD) =  -466.804114992     A.U. after   14 cycles
 Normal termination of Gaussian 16 at Tue Aug  4 20:14:23 2020.

 ----------------------------------------------------------------------
 #p uwb97xd guess=mix def2tzvp # scrf=(iefpcm,solvent=Cyclohexane,read)
  nosym 6d 10f
 ----------------------------------------------------------------------

 -----------------------
 endo-2 xp-pcm for eta=3
 -----------------------
 Symbolic Z-matrix:
 Charge =  0 Multiplicity = 1

 SCF Done:  E(UwB97XD) =  -466.797443926     A.U. after   14 cycles
 Normal termination of Gaussian 16 at Tue Aug  4 20:19:00 2020.
 Gaussian 16:  ES64L-G16RevB.01 20-Dec-2017

                          Input orientation:
 ---------------------------------------------------------------------
 Center     Atomic      Atomic             Coordinates (Angstroms)
 Number     Number       Type             X           Y           Z
 ---------------------------------------------------------------------
      1          6           0       -3.119867   -0.423059    0.242362
      2          6           0       -0.399464   -0.121031   -0.665456
      3          1           0       -4.102983   -0.545295    0.679967
      4          1           0        0.332815   -0.116775   -1.477337
      5          6           0        1.102005    1.439151    0.627583
      6          6           0        0.399464    0.121031    0.665456
      7          1           0        0.570347    2.335794    0.919988
      8          1           0       -0.332815    0.116775    1.477337
      9          6           0        1.424818   -0.986752    0.942031
     10          1           0        1.823276   -0.830898    1.947861
     11          1           0        0.940841   -1.964613    0.940308
     12          6           0        2.393506    1.531561    0.139068
     13          1           0        2.848769    2.511456    0.044365
     14          6           0        3.119867    0.423059   -0.242362
     15          1           0        4.102983    0.545295   -0.679967
     16          6           0        2.585761   -0.961115   -0.052535
     17          1           0        2.266469   -1.369268   -1.020958
     18          1           0        3.384717   -1.624588    0.289923
     19          6           0       -1.102005   -1.439151   -0.627583
     20          1           0       -0.570347   -2.335794   -0.919988
     21          6           0       -2.393506   -1.531561   -0.139068
     22          1           0       -2.848769   -2.511456   -0.044365
     23          6           0       -1.424818    0.986752   -0.942031
     24          1           0       -0.940841    1.964613   -0.940309
     25          1           0       -1.823276    0.830898   -1.947861
     26          6           0       -2.585761    0.961115    0.052535
     27          1           0       -3.384717    1.624588   -0.289923
     28          1           0       -2.266469    1.369268    1.020958
 ---------------------------------------------------------------------

 SCF Done:  E(UwB97XD) =  -466.789151562     A.U. after   14 cycles

 Alpha  occ. eigenvalues --  -10.27887 -10.27764 -10.27629 -10.27369 -10.27198
 Alpha  occ. eigenvalues --  -10.27148 -10.26984 -10.26903 -10.26667 -10.26642
 Alpha  occ. eigenvalues --  -10.26572 -10.26551  -0.94585  -0.91658  -0.85042
 Alpha  occ. eigenvalues --   -0.83583  -0.82527  -0.79926  -0.70521  -0.69709
 Alpha  occ. eigenvalues --   -0.68141  -0.66512  -0.59182  -0.58310  -0.57692
 Alpha  occ. eigenvalues --   -0.55148  -0.52628  -0.51602  -0.49955  -0.47998
 Alpha  occ. eigenvalues --   -0.47962  -0.47592  -0.47210  -0.46310  -0.44815
 Alpha  occ. eigenvalues --   -0.43651  -0.40341  -0.39836  -0.38968  -0.37813
 Alpha  occ. eigenvalues --   -0.36658  -0.36372  -0.33716  -0.24257
 Alpha virt. eigenvalues --    0.01382   0.12018   0.13521   0.15271   0.15546
 Alpha virt. eigenvalues --    0.16688   0.17762   0.18409   0.19171   0.19418
 Alpha virt. eigenvalues --    0.19965   0.20326   0.21505   0.23045   0.23081

  Beta  occ. eigenvalues --  -10.27888 -10.27763 -10.27629 -10.27369 -10.27196
  Beta  occ. eigenvalues --  -10.27150 -10.26984 -10.26904 -10.26667 -10.26642
  Beta  occ. eigenvalues --  -10.26568 -10.26555  -0.94585  -0.91658  -0.85042
  Beta  occ. eigenvalues --   -0.83583  -0.82528  -0.79926  -0.70521  -0.69709
  Beta  occ. eigenvalues --   -0.68141  -0.66512  -0.59182  -0.58310  -0.57692
  Beta  occ. eigenvalues --   -0.55148  -0.52628  -0.51602  -0.49955  -0.47998
  Beta  occ. eigenvalues --   -0.47963  -0.47590  -0.47210  -0.46310  -0.44814
  Beta  occ. eigenvalues --   -0.43650  -0.40342  -0.39835  -0.38968  -0.37813
  Beta  occ. eigenvalues --   -0.36658  -0.36372  -0.33716  -0.24258
  Beta virt. eigenvalues --    0.01382   0.12018   0.13522   0.15269   0.15547
  Beta virt. eigenvalues --    0.16688   0.17762   0.18409   0.19171   0.19417
  Beta virt. eigenvalues --    0.19968   0.20323   0.21505   0.23046   0.23081

 Mulliken charges and spin densities:
               1          2
     1  C   -0.192240  -0.598646
     2  C   -0.147223   0.052212
     3  H    0.150211   0.024566
     4  H    0.154447  -0.008619
     5  C   -0.220626   0.614412
     6  C   -0.142009  -0.052105
     7  H    0.170852  -0.025021
     8  H    0.152007   0.008609
     9  C   -0.258149   0.009644
    10  H    0.134372  -0.000077
    11  H    0.149886   0.000136
    12  C   -0.156711  -0.223533
    13  H    0.147302   0.009173
    14  C   -0.192832   0.598580
    15  H    0.150284  -0.024563
    16  C   -0.194352  -0.035984
    17  H    0.125453   0.033670
    18  H    0.135670   0.014829
    19  C   -0.220713  -0.614372
    20  H    0.172335   0.024991
    21  C   -0.157409   0.223513
    22  H    0.147342  -0.009177
    23  C   -0.256487  -0.009661
    24  H    0.150153  -0.000139
    25  H    0.133511   0.000079
    26  C   -0.196242   0.036005
    27  H    0.135807  -0.014833
    28  H    0.125363  -0.033690
 Sum of Mulliken charges =  -0.00000  -0.00000

 Dipole moment (field-independent basis, Debye):
    X=             -0.0003    Y=             -0.0011    Z=             -0.0041  Tot=              0.0043
 Quadrupole moment (field-independent basis, Debye-Ang):
   XX=            -69.6816   YY=            -69.5666   ZZ=            -74.9147
   XY=             -2.3600   XZ=             -2.5884   YZ=              0.2099

 Normal termination of Gaussian 16 at Tue Aug  4 20:23:34 2020.
