 Gaussian 16, Revision B.01,

 ----------------------------------------------------------------------
 #p uwb97xd guess=mix def2tzvp # scrf=(iefpcm,solvent=Cyclohexane,read)
  nosym 6d 10f
 ----------------------------------------------------------------------

 -----------------------
 endo-2 xp-pcm for eta=3
 -----------------------
 Symbolic Z-matrix:
 Charge =  0 Multiplicity = 1

 SCF Done:  E(UwB97XD) =  -466.848696623     A.U. after   18 cycles
 Normal termination of Gaussian 16 at Tue Aug  4 00:48:04 2020.

 ----------------------------------------------------------------------
 #p uwb97xd guess=mix def2tzvp # scrf=(iefpcm,solvent=Cyclohexane,read)
  nosym 6d 10f
 ----------------------------------------------------------------------

 -----------------------
 endo-2 xp-pcm for eta=3
 -----------------------
 Symbolic Z-matrix:
 Charge =  0 Multiplicity = 1

 SCF Done:  E(UwB97XD) =  -466.845349221     A.U. after   18 cycles
 Normal termination of Gaussian 16 at Tue Aug  4 00:53:41 2020.

 ----------------------------------------------------------------------
 #p uwb97xd guess=mix def2tzvp # scrf=(iefpcm,solvent=Cyclohexane,read)
  nosym 6d 10f
 ----------------------------------------------------------------------

 -----------------------
 endo-2 xp-pcm for eta=3
 -----------------------
 Symbolic Z-matrix:
 Charge =  0 Multiplicity = 1

 SCF Done:  E(UwB97XD) =  -466.840768534     A.U. after   18 cycles
 Normal termination of Gaussian 16 at Tue Aug  4 00:59:16 2020.

 ----------------------------------------------------------------------
 #p uwb97xd guess=mix def2tzvp # scrf=(iefpcm,solvent=Cyclohexane,read)
  nosym 6d 10f
 ----------------------------------------------------------------------

 -----------------------
 endo-2 xp-pcm for eta=3
 -----------------------
 Symbolic Z-matrix:
 Charge =  0 Multiplicity = 1

 SCF Done:  E(UwB97XD) =  -466.833888780     A.U. after   17 cycles
 Normal termination of Gaussian 16 at Tue Aug  4 01:04:46 2020.

 ----------------------------------------------------------------------
 #p uwb97xd guess=mix def2tzvp # scrf=(iefpcm,solvent=Cyclohexane,read)
  nosym 6d 10f
 ----------------------------------------------------------------------

 -----------------------
 endo-2 xp-pcm for eta=3
 -----------------------
 Symbolic Z-matrix:
 Charge =  0 Multiplicity = 1

 SCF Done:  E(UwB97XD) =  -466.823272085     A.U. after   17 cycles
 Normal termination of Gaussian 16 at Tue Aug  4 01:10:07 2020.

 ----------------------------------------------------------------------
 #p uwb97xd guess=mix def2tzvp # scrf=(iefpcm,solvent=Cyclohexane,read)
  nosym 6d 10f
 ----------------------------------------------------------------------

 -----------------------
 endo-2 xp-pcm for eta=3
 -----------------------
 Symbolic Z-matrix:
 Charge =  0 Multiplicity = 1

 SCF Done:  E(UwB97XD) =  -466.817518318     A.U. after   17 cycles
 Normal termination of Gaussian 16 at Tue Aug  4 01:15:29 2020.
 Gaussian 16:  ES64L-G16RevB.01 20-Dec-2017

                          Input orientation:
 ---------------------------------------------------------------------
 Center     Atomic      Atomic             Coordinates (Angstroms)
 Number     Number       Type             X           Y           Z
 ---------------------------------------------------------------------
      1          6           0       -3.126543   -0.441233    0.268190
      2          6           0       -0.754024   -0.256533   -1.270411
      3          1           0       -4.062711   -0.529769    0.807219
      4          1           0        0.190409   -0.176659   -1.794641
      5          6           0        1.183128    1.429264    0.813376
      6          6           0        0.754024    0.256533    1.270411
      7          1           0        0.591290    2.326044    0.953170
      8          1           0       -0.190409    0.176659    1.794641
      9          6           0        1.584536   -0.987345    1.138633
     10          1           0        2.135575   -1.119037    2.078702
     11          1           0        0.936296   -1.859379    1.043739
     12          6           0        2.464520    1.531740    0.114055
     13          1           0        2.863784    2.516400   -0.097950
     14          6           0        3.126543    0.441233   -0.268190
     15          1           0        4.062711    0.529769   -0.807219
     16          6           0        2.569963   -0.936686   -0.033648
     17          1           0        2.075826   -1.268120   -0.955200
     18          1           0        3.381182   -1.646980    0.137036
     19          6           0       -1.183128   -1.429264   -0.813376
     20          1           0       -0.591290   -2.326044   -0.953170
     21          6           0       -2.464520   -1.531740   -0.114055
     22          1           0       -2.863784   -2.516400    0.097950
     23          6           0       -1.584536    0.987345   -1.138633
     24          1           0       -0.936296    1.859379   -1.043739
     25          1           0       -2.135575    1.119037   -2.078702
     26          6           0       -2.569963    0.936686    0.033648
     27          1           0       -3.381182    1.646980   -0.137036
     28          1           0       -2.075826    1.268120    0.955200
 ---------------------------------------------------------------------

 SCF Done:  E(UwB97XD) =  -466.809567031     A.U. after   17 cycles

 Alpha  occ. eigenvalues --  -10.27311 -10.27308 -10.27114 -10.27114 -10.27078
 Alpha  occ. eigenvalues --  -10.27076 -10.27060 -10.27058 -10.26789 -10.26788
 Alpha  occ. eigenvalues --  -10.26459 -10.26457  -0.93157  -0.92621  -0.83251
 Alpha  occ. eigenvalues --   -0.83142  -0.82856  -0.82697  -0.70409  -0.70206
 Alpha  occ. eigenvalues --   -0.66992  -0.66940  -0.58739  -0.58594  -0.56391
 Alpha  occ. eigenvalues --   -0.55721  -0.52588  -0.51763  -0.49942  -0.49893
 Alpha  occ. eigenvalues --   -0.48872  -0.48397  -0.46289  -0.45862  -0.44153
 Alpha  occ. eigenvalues --   -0.44043  -0.40235  -0.39979  -0.38682  -0.38327
 Alpha  occ. eigenvalues --   -0.38215  -0.38027  -0.28809  -0.26647
 Alpha virt. eigenvalues --    0.04776   0.06054   0.13300   0.14668   0.16447
 Alpha virt. eigenvalues --    0.16866   0.17258   0.18089   0.18424   0.19035
 Alpha virt. eigenvalues --    0.19543   0.19552   0.20093   0.21213   0.22978

  Beta  occ. eigenvalues --  -10.27311 -10.27308 -10.27114 -10.27114 -10.27078
  Beta  occ. eigenvalues --  -10.27076 -10.27060 -10.27058 -10.26789 -10.26788
  Beta  occ. eigenvalues --  -10.26459 -10.26457  -0.93157  -0.92621  -0.83251
  Beta  occ. eigenvalues --   -0.83142  -0.82856  -0.82697  -0.70409  -0.70206
  Beta  occ. eigenvalues --   -0.66992  -0.66940  -0.58739  -0.58594  -0.56391
  Beta  occ. eigenvalues --   -0.55721  -0.52588  -0.51763  -0.49942  -0.49893
  Beta  occ. eigenvalues --   -0.48872  -0.48397  -0.46289  -0.45862  -0.44153
  Beta  occ. eigenvalues --   -0.44043  -0.40235  -0.39979  -0.38682  -0.38327
  Beta  occ. eigenvalues --   -0.38215  -0.38027  -0.28809  -0.26647
  Beta virt. eigenvalues --    0.04776   0.06054   0.13300   0.14668   0.16447
  Beta virt. eigenvalues --    0.16866   0.17258   0.18089   0.18424   0.19035
  Beta virt. eigenvalues --    0.19543   0.19552   0.20093   0.21213   0.22978

 Mulliken charges and spin densities:
               1          2
     1  C   -0.203662  -0.000000
     2  C   -0.197052   0.000001
     3  H    0.148298  -0.000000
     4  H    0.171442  -0.000000
     5  C   -0.190189  -0.000001
     6  C   -0.197198   0.000001
     7  H    0.166992  -0.000000
     8  H    0.171333   0.000000
     9  C   -0.217396   0.000001
    10  H    0.131300  -0.000000
    11  H    0.142306  -0.000000
    12  C   -0.161354   0.000001
    13  H    0.151973   0.000000
    14  C   -0.203261  -0.000002
    15  H    0.148347   0.000000
    16  C   -0.193231  -0.000000
    17  H    0.117302  -0.000000
    18  H    0.133292   0.000000
    19  C   -0.191732  -0.000001
    20  H    0.167442   0.000000
    21  C   -0.160153   0.000001
    22  H    0.151687  -0.000000
    23  C   -0.217472  -0.000001
    24  H    0.142064   0.000000
    25  H    0.131326   0.000000
    26  C   -0.193259   0.000000
    27  H    0.133271  -0.000000
    28  H    0.117584  -0.000000
 Sum of Mulliken charges =  -0.00000  -0.00000

 Dipole moment (field-independent basis, Debye):
    X=             -0.0006    Y=             -0.0009    Z=              0.0002  Tot=              0.0011
 Quadrupole moment (field-independent basis, Debye-Ang):
   XX=            -70.3286   YY=            -68.1304   ZZ=            -75.2330
   XY=             -3.3414   XZ=             -3.8010   YZ=             -1.7348

 Normal termination of Gaussian 16 at Tue Aug  4 01:20:50 2020.
