 Gaussian 16, Revision B.01,

 ----------------------------------------------------------------------
 #p uwb97xd guess=mix def2tzvp # scrf=(iefpcm,solvent=Cyclohexane,read)
  nosym 6d 10f
 ----------------------------------------------------------------------

 -----------------------
 endo-2 xp-pcm for eta=3
 -----------------------
 Symbolic Z-matrix:
 Charge =  0 Multiplicity = 1

 SCF Done:  E(UwB97XD) =  -466.845838381     A.U. after   18 cycles
 Normal termination of Gaussian 16 at Tue Aug  4 03:24:48 2020.

 ----------------------------------------------------------------------
 #p uwb97xd guess=mix def2tzvp # scrf=(iefpcm,solvent=Cyclohexane,read)
  nosym 6d 10f
 ----------------------------------------------------------------------

 -----------------------
 endo-2 xp-pcm for eta=3
 -----------------------
 Symbolic Z-matrix:
 Charge =  0 Multiplicity = 1

 SCF Done:  E(UwB97XD) =  -466.842322040     A.U. after   18 cycles
 Normal termination of Gaussian 16 at Tue Aug  4 03:30:28 2020.

 ----------------------------------------------------------------------
 #p uwb97xd guess=mix def2tzvp # scrf=(iefpcm,solvent=Cyclohexane,read)
  nosym 6d 10f
 ----------------------------------------------------------------------

 -----------------------
 endo-2 xp-pcm for eta=3
 -----------------------
 Symbolic Z-matrix:
 Charge =  0 Multiplicity = 1

 SCF Done:  E(UwB97XD) =  -466.837701742     A.U. after   18 cycles
 Normal termination of Gaussian 16 at Tue Aug  4 03:36:06 2020.

 ----------------------------------------------------------------------
 #p uwb97xd guess=mix def2tzvp # scrf=(iefpcm,solvent=Cyclohexane,read)
  nosym 6d 10f
 ----------------------------------------------------------------------

 -----------------------
 endo-2 xp-pcm for eta=3
 -----------------------
 Symbolic Z-matrix:
 Charge =  0 Multiplicity = 1

 SCF Done:  E(UwB97XD) =  -466.830656251     A.U. after   18 cycles
 Normal termination of Gaussian 16 at Tue Aug  4 03:41:43 2020.

 ----------------------------------------------------------------------
 #p uwb97xd guess=mix def2tzvp # scrf=(iefpcm,solvent=Cyclohexane,read)
  nosym 6d 10f
 ----------------------------------------------------------------------

 -----------------------
 endo-2 xp-pcm for eta=3
 -----------------------
 Symbolic Z-matrix:
 Charge =  0 Multiplicity = 1

 SCF Done:  E(UwB97XD) =  -466.821328112     A.U. after   18 cycles
 Normal termination of Gaussian 16 at Tue Aug  4 03:47:20 2020.

 ----------------------------------------------------------------------
 #p uwb97xd guess=mix def2tzvp # scrf=(iefpcm,solvent=Cyclohexane,read)
  nosym 6d 10f
 ----------------------------------------------------------------------

 -----------------------
 endo-2 xp-pcm for eta=3
 -----------------------
 Symbolic Z-matrix:
 Charge =  0 Multiplicity = 1

 SCF Done:  E(UwB97XD) =  -466.815246968     A.U. after   18 cycles
 Normal termination of Gaussian 16 at Tue Aug  4 03:52:59 2020.
 Gaussian 16:  ES64L-G16RevB.01 20-Dec-2017

                          Input orientation:
 ---------------------------------------------------------------------
 Center     Atomic      Atomic             Coordinates (Angstroms)
 Number     Number       Type             X           Y           Z
 ---------------------------------------------------------------------
      1          6           0       -3.127681   -0.441423    0.258958
      2          6           0       -0.708381   -0.245534   -1.202422
      3          1           0       -4.076548   -0.536846    0.774111
      4          1           0        0.248962   -0.160472   -1.700991
      5          6           0        1.152306    1.422704    0.772430
      6          6           0        0.708381    0.245534    1.202422
      7          1           0        0.558988    2.319273    0.905524
      8          1           0       -0.248962    0.160472    1.700991
      9          6           0        1.545018   -0.996200    1.092829
     10          1           0        2.059657   -1.126856    2.053246
     11          1           0        0.904290   -1.869997    0.974198
     12          6           0        2.450083    1.528310    0.106435
     13          1           0        2.850945    2.514335   -0.096069
     14          6           0        3.127681    0.441423   -0.258958
     15          1           0        4.076548    0.536846   -0.774111
     16          6           0        2.579330   -0.941931   -0.037180
     17          1           0        2.135763   -1.291670   -0.977567
     18          1           0        3.392662   -1.637636    0.178291
     19          6           0       -1.152306   -1.422704   -0.772430
     20          1           0       -0.558988   -2.319273   -0.905524
     21          6           0       -2.450083   -1.528310   -0.106435
     22          1           0       -2.850945   -2.514335    0.096069
     23          6           0       -1.545018    0.996200   -1.092829
     24          1           0       -0.904290    1.869997   -0.974198
     25          1           0       -2.059657    1.126856   -2.053246
     26          6           0       -2.579330    0.941931    0.037180
     27          1           0       -3.392662    1.637636   -0.178291
     28          1           0       -2.135763    1.291670    0.977567
 ---------------------------------------------------------------------

 SCF Done:  E(UwB97XD) =  -466.807606398     A.U. after   18 cycles

 Alpha  occ. eigenvalues --  -10.27341 -10.27327 -10.27082 -10.27076 -10.27060
 Alpha  occ. eigenvalues --  -10.27058 -10.27050 -10.27047 -10.26781 -10.26779
 Alpha  occ. eigenvalues --  -10.26358 -10.26358  -0.93234  -0.92548  -0.83365
 Alpha  occ. eigenvalues --   -0.83202  -0.82767  -0.82672  -0.70510  -0.70153
 Alpha  occ. eigenvalues --   -0.67059  -0.66924  -0.58767  -0.58624  -0.56408
 Alpha  occ. eigenvalues --   -0.55603  -0.52680  -0.51798  -0.49949  -0.49926
 Alpha  occ. eigenvalues --   -0.48835  -0.48294  -0.46360  -0.45815  -0.44306
 Alpha  occ. eigenvalues --   -0.43977  -0.40288  -0.39951  -0.38739  -0.38312
 Alpha  occ. eigenvalues --   -0.38186  -0.37937  -0.28871  -0.26405
 Alpha virt. eigenvalues --    0.04525   0.06367   0.13352   0.14836   0.16504
 Alpha virt. eigenvalues --    0.16891   0.17401   0.18151   0.18543   0.19080
 Alpha virt. eigenvalues --    0.19457   0.19515   0.20147   0.21231   0.22985

  Beta  occ. eigenvalues --  -10.27341 -10.27327 -10.27082 -10.27076 -10.27060
  Beta  occ. eigenvalues --  -10.27058 -10.27050 -10.27047 -10.26781 -10.26779
  Beta  occ. eigenvalues --  -10.26358 -10.26358  -0.93234  -0.92548  -0.83365
  Beta  occ. eigenvalues --   -0.83202  -0.82767  -0.82672  -0.70510  -0.70153
  Beta  occ. eigenvalues --   -0.67059  -0.66924  -0.58767  -0.58624  -0.56408
  Beta  occ. eigenvalues --   -0.55603  -0.52680  -0.51798  -0.49949  -0.49926
  Beta  occ. eigenvalues --   -0.48835  -0.48294  -0.46360  -0.45815  -0.44306
  Beta  occ. eigenvalues --   -0.43977  -0.40288  -0.39951  -0.38739  -0.38312
  Beta  occ. eigenvalues --   -0.38186  -0.37937  -0.28871  -0.26405
  Beta virt. eigenvalues --    0.04525   0.06367   0.13352   0.14836   0.16504
  Beta virt. eigenvalues --    0.16891   0.17401   0.18151   0.18543   0.19080
  Beta virt. eigenvalues --    0.19457   0.19515   0.20147   0.21231   0.22985

 Mulliken charges and spin densities:
               1          2
     1  C   -0.204632  -0.000000
     2  C   -0.201437   0.000000
     3  H    0.148076  -0.000000
     4  H    0.173648  -0.000000
     5  C   -0.187949  -0.000000
     6  C   -0.198104   0.000001
     7  H    0.167288  -0.000000
     8  H    0.172389  -0.000000
     9  C   -0.225811   0.000001
    10  H    0.131557  -0.000000
    11  H    0.146926  -0.000000
    12  C   -0.163066   0.000001
    13  H    0.151673   0.000000
    14  C   -0.202972  -0.000001
    15  H    0.147998   0.000000
    16  C   -0.194056  -0.000000
    17  H    0.121201   0.000000
    18  H    0.133162   0.000000
    19  C   -0.187902  -0.000000
    20  H    0.167972   0.000000
    21  C   -0.159848   0.000000
    22  H    0.151011  -0.000000
    23  C   -0.225147  -0.000001
    24  H    0.146573   0.000000
    25  H    0.131764   0.000000
    26  C   -0.192847   0.000000
    27  H    0.133350  -0.000000
    28  H    0.119181  -0.000000
 Sum of Mulliken charges =  -0.00000   0.00000

 Dipole moment (field-independent basis, Debye):
    X=              0.0004    Y=             -0.0076    Z=             -0.0068  Tot=              0.0102
 Quadrupole moment (field-independent basis, Debye-Ang):
   XX=            -70.2129   YY=            -68.1450   ZZ=            -75.4636
   XY=             -3.3847   XZ=             -3.6616   YZ=             -1.7131

 Normal termination of Gaussian 16 at Tue Aug  4 03:58:36 2020.
