 Gaussian 16, Revision B.01,

 ----------------------------------------------------------------------
 #p uwb97xd guess=mix def2tzvp # scrf=(iefpcm,solvent=Cyclohexane,read)
  nosym 6d 10f
 ----------------------------------------------------------------------

 -----------------------
 endo-2 xp-pcm for eta=3
 -----------------------
 Symbolic Z-matrix:
 Charge =  0 Multiplicity = 1

 SCF Done:  E(UwB97XD) =  -466.814132522     A.U. after   22 cycles
 Normal termination of Gaussian 16 at Tue Aug  4 12:14:19 2020.

 ----------------------------------------------------------------------
 #p uwb97xd guess=mix def2tzvp # scrf=(iefpcm,solvent=Cyclohexane,read)
  nosym 6d 10f
 ----------------------------------------------------------------------

 -----------------------
 endo-2 xp-pcm for eta=3
 -----------------------
 Symbolic Z-matrix:
 Charge =  0 Multiplicity = 1

 SCF Done:  E(UwB97XD) =  -466.810327252     A.U. after   22 cycles
 Normal termination of Gaussian 16 at Tue Aug  4 12:21:23 2020.

 ----------------------------------------------------------------------
 #p uwb97xd guess=mix def2tzvp # scrf=(iefpcm,solvent=Cyclohexane,read)
  nosym 6d 10f
 ----------------------------------------------------------------------

 -----------------------
 endo-2 xp-pcm for eta=3
 -----------------------
 Symbolic Z-matrix:
 Charge =  0 Multiplicity = 1

 SCF Done:  E(UwB97XD) =  -466.806398700     A.U. after   20 cycles
 Normal termination of Gaussian 16 at Tue Aug  4 12:27:50 2020.

 ----------------------------------------------------------------------
 #p uwb97xd guess=mix def2tzvp # scrf=(iefpcm,solvent=Cyclohexane,read)
  nosym 6d 10f
 ----------------------------------------------------------------------

 -----------------------
 endo-2 xp-pcm for eta=3
 -----------------------
 Symbolic Z-matrix:
 Charge =  0 Multiplicity = 1

 SCF Done:  E(UwB97XD) =  -466.799148954     A.U. after   22 cycles
 Normal termination of Gaussian 16 at Tue Aug  4 12:34:50 2020.

 ----------------------------------------------------------------------
 #p uwb97xd guess=mix def2tzvp # scrf=(iefpcm,solvent=Cyclohexane,read)
  nosym 6d 10f
 ----------------------------------------------------------------------

 -----------------------
 endo-2 xp-pcm for eta=3
 -----------------------
 Symbolic Z-matrix:
 Charge =  0 Multiplicity = 1

 SCF Done:  E(UwB97XD) =  -466.789087267     A.U. after   22 cycles
 Normal termination of Gaussian 16 at Tue Aug  4 12:41:51 2020.

 ----------------------------------------------------------------------
 #p uwb97xd guess=mix def2tzvp # scrf=(iefpcm,solvent=Cyclohexane,read)
  nosym 6d 10f
 ----------------------------------------------------------------------

 -----------------------
 endo-2 xp-pcm for eta=3
 -----------------------
 Symbolic Z-matrix:
 Charge =  0 Multiplicity = 1

 SCF Done:  E(UwB97XD) =  -466.782943034     A.U. after   20 cycles
 Normal termination of Gaussian 16 at Tue Aug  4 12:48:19 2020.
 Gaussian 16:  ES64L-G16RevB.01 20-Dec-2017

                          Input orientation:
 ---------------------------------------------------------------------
 Center     Atomic      Atomic             Coordinates (Angstroms)
 Number     Number       Type             X           Y           Z
 ---------------------------------------------------------------------
      1          6           0       -3.118021   -0.436434    0.246814
      2          6           0       -0.540801   -0.189187   -0.905365
      3          1           0       -4.082489   -0.549871    0.728045
      4          1           0        0.377295   -0.116929   -1.473260
      5          6           0        1.091386    1.404996    0.687212
      6          6           0        0.540801    0.189187    0.905365
      7          1           0        0.527763    2.310929    0.871630
      8          1           0       -0.377295    0.116929    1.473260
      9          6           0        1.464971   -0.999714    0.988105
     10          1           0        1.905333   -0.956079    1.991084
     11          1           0        0.918248   -1.940154    0.928320
     12          6           0        2.416056    1.516900    0.113501
     13          1           0        2.826400    2.506211   -0.052048
     14          6           0        3.118021    0.436434   -0.246814
     15          1           0        4.082489    0.549871   -0.728045
     16          6           0        2.591807   -0.958352   -0.044272
     17          1           0        2.252673   -1.356402   -1.008685
     18          1           0        3.400675   -1.620592    0.272198
     19          6           0       -1.091386   -1.404996   -0.687212
     20          1           0       -0.527763   -2.310929   -0.871630
     21          6           0       -2.416056   -1.516900   -0.113501
     22          1           0       -2.826400   -2.506211    0.052048
     23          6           0       -1.464971    0.999714   -0.988105
     24          1           0       -0.918248    1.940154   -0.928320
     25          1           0       -1.905333    0.956079   -1.991084
     26          6           0       -2.591807    0.958352    0.044272
     27          1           0       -3.400675    1.620592   -0.272198
     28          1           0       -2.252673    1.356402    1.008685
 ---------------------------------------------------------------------

 SCF Done:  E(UwB97XD) =  -466.774576961     A.U. after   20 cycles

 Alpha  occ. eigenvalues --  -10.27841 -10.27840 -10.27345 -10.27345 -10.27033
 Alpha  occ. eigenvalues --  -10.27031 -10.27004 -10.26996 -10.26769 -10.26765
 Alpha  occ. eigenvalues --  -10.26117 -10.26116  -0.93965  -0.92362  -0.84100
 Alpha  occ. eigenvalues --   -0.83368  -0.82588  -0.82055  -0.70542  -0.69638
 Alpha  occ. eigenvalues --   -0.67927  -0.66793  -0.59065  -0.58749  -0.57013
 Alpha  occ. eigenvalues --   -0.55303  -0.52327  -0.52155  -0.50024  -0.49464
 Alpha  occ. eigenvalues --   -0.48691  -0.47639  -0.46684  -0.46076  -0.45285
 Alpha  occ. eigenvalues --   -0.43662  -0.40475  -0.39988  -0.38812  -0.38332
 Alpha  occ. eigenvalues --   -0.38061  -0.37058  -0.30304  -0.23487
 Alpha virt. eigenvalues --    0.01357   0.09122   0.13353   0.15380   0.16170
 Alpha virt. eigenvalues --    0.16516   0.17726   0.18587   0.19032   0.19181
 Alpha virt. eigenvalues --    0.19442   0.20204   0.20402   0.21558   0.22974

  Beta  occ. eigenvalues --  -10.27841 -10.27840 -10.27345 -10.27345 -10.27033
  Beta  occ. eigenvalues --  -10.27031 -10.27004 -10.26996 -10.26769 -10.26765
  Beta  occ. eigenvalues --  -10.26117 -10.26116  -0.93965  -0.92362  -0.84100
  Beta  occ. eigenvalues --   -0.83368  -0.82588  -0.82055  -0.70542  -0.69638
  Beta  occ. eigenvalues --   -0.67927  -0.66793  -0.59065  -0.58749  -0.57013
  Beta  occ. eigenvalues --   -0.55303  -0.52327  -0.52155  -0.50024  -0.49464
  Beta  occ. eigenvalues --   -0.48691  -0.47639  -0.46684  -0.46076  -0.45285
  Beta  occ. eigenvalues --   -0.43662  -0.40475  -0.39988  -0.38812  -0.38332
  Beta  occ. eigenvalues --   -0.38061  -0.37058  -0.30304  -0.23487
  Beta virt. eigenvalues --    0.01357   0.09122   0.13353   0.15380   0.16170
  Beta virt. eigenvalues --    0.16516   0.17726   0.18587   0.19032   0.19181
  Beta virt. eigenvalues --    0.19442   0.20204   0.20402   0.21558   0.22974

 Mulliken charges and spin densities:
               1          2
     1  C   -0.204075  -0.000008
     2  C   -0.213486   0.000007
     3  H    0.148145   0.000000
     4  H    0.186809  -0.000000
     5  C   -0.167052   0.000012
     6  C   -0.211784  -0.000007
     7  H    0.161686  -0.000001
     8  H    0.185865   0.000000
     9  C   -0.237011  -0.000001
    10  H    0.135761   0.000000
    11  H    0.153466   0.000000
    12  C   -0.175120  -0.000005
    13  H    0.150185   0.000000
    14  C   -0.205667   0.000008
    15  H    0.148092  -0.000000
    16  C   -0.199905  -0.000000
    17  H    0.126567   0.000000
    18  H    0.135499   0.000000
    19  C   -0.167668  -0.000012
    20  H    0.161125   0.000001
    21  C   -0.177132   0.000005
    22  H    0.150569  -0.000000
    23  C   -0.233842   0.000001
    24  H    0.154371  -0.000000
    25  H    0.134648  -0.000000
    26  C   -0.202612   0.000000
    27  H    0.135813  -0.000000
    28  H    0.126753  -0.000000
 Sum of Mulliken charges =  -0.00000  -0.00000

 Dipole moment (field-independent basis, Debye):
    X=             -0.0015    Y=              0.0001    Z=             -0.0060  Tot=              0.0062
 Quadrupole moment (field-independent basis, Debye-Ang):
   XX=            -70.5193   YY=            -68.5231   ZZ=            -75.3795
   XY=             -3.2699   XZ=             -3.1786   YZ=             -1.1328

 Normal termination of Gaussian 16 at Tue Aug  4 12:54:43 2020.
