 Gaussian 16, Revision B.01,

 ----------------------------------------------------------------------
 #p uwb97xd guess=mix def2tzvp # scrf=(iefpcm,solvent=Cyclohexane,read)
  nosym 6d 10f
 ----------------------------------------------------------------------

 -----------------------
 endo-2 xp-pcm for eta=3
 -----------------------
 Symbolic Z-matrix:
 Charge =  0 Multiplicity = 1

 SCF Done:  E(UwB97XD) =  -466.811908156     A.U. after   16 cycles
 Normal termination of Gaussian 16 at Tue Aug  4 16:29:06 2020.

 ----------------------------------------------------------------------
 #p uwb97xd guess=mix def2tzvp # scrf=(iefpcm,solvent=Cyclohexane,read)
  nosym 6d 10f
 ----------------------------------------------------------------------

 -----------------------
 endo-2 xp-pcm for eta=3
 -----------------------
 Symbolic Z-matrix:
 Charge =  0 Multiplicity = 1

 SCF Done:  E(UwB97XD) =  -466.808841240     A.U. after   16 cycles
 Normal termination of Gaussian 16 at Tue Aug  4 16:34:22 2020.

 ----------------------------------------------------------------------
 #p uwb97xd guess=mix def2tzvp # scrf=(iefpcm,solvent=Cyclohexane,read)
  nosym 6d 10f
 ----------------------------------------------------------------------

 -----------------------
 endo-2 xp-pcm for eta=3
 -----------------------
 Symbolic Z-matrix:
 Charge =  0 Multiplicity = 1

 SCF Done:  E(UwB97XD) =  -466.803378172     A.U. after   16 cycles
 Normal termination of Gaussian 16 at Tue Aug  4 16:39:33 2020.

 ----------------------------------------------------------------------
 #p uwb97xd guess=mix def2tzvp # scrf=(iefpcm,solvent=Cyclohexane,read)
  nosym 6d 10f
 ----------------------------------------------------------------------

 -----------------------
 endo-2 xp-pcm for eta=3
 -----------------------
 Symbolic Z-matrix:
 Charge =  0 Multiplicity = 1

 SCF Done:  E(UwB97XD) =  -466.796084015     A.U. after   16 cycles
 Normal termination of Gaussian 16 at Tue Aug  4 16:44:46 2020.

 ----------------------------------------------------------------------
 #p uwb97xd guess=mix def2tzvp # scrf=(iefpcm,solvent=Cyclohexane,read)
  nosym 6d 10f
 ----------------------------------------------------------------------

 -----------------------
 endo-2 xp-pcm for eta=3
 -----------------------
 Symbolic Z-matrix:
 Charge =  0 Multiplicity = 1

 SCF Done:  E(UwB97XD) =  -466.786683606     A.U. after   16 cycles
 Normal termination of Gaussian 16 at Tue Aug  4 16:50:05 2020.

 ----------------------------------------------------------------------
 #p uwb97xd guess=mix def2tzvp # scrf=(iefpcm,solvent=Cyclohexane,read)
  nosym 6d 10f
 ----------------------------------------------------------------------

 -----------------------
 endo-2 xp-pcm for eta=3
 -----------------------
 Symbolic Z-matrix:
 Charge =  0 Multiplicity = 1

 SCF Done:  E(UwB97XD) =  -466.781206912     A.U. after   16 cycles
 Normal termination of Gaussian 16 at Tue Aug  4 16:55:33 2020.
 Gaussian 16:  ES64L-G16RevB.01 20-Dec-2017

                          Input orientation:
 ---------------------------------------------------------------------
 Center     Atomic      Atomic             Coordinates (Angstroms)
 Number     Number       Type             X           Y           Z
 ---------------------------------------------------------------------
      1          6           0       -3.119623   -0.428287    0.247977
      2          6           0       -0.467744   -0.142247   -0.792389
      3          1           0       -4.085353   -0.547852    0.723900
      4          1           0        0.337990   -0.113517   -1.523464
      5          6           0        1.112786    1.427748    0.675736
      6          6           0        0.467744    0.142247    0.792389
      7          1           0        0.556231    2.329182    0.898405
      8          1           0       -0.337990    0.113517    1.523464
      9          6           0        1.459612   -0.999280    0.985076
     10          1           0        1.889507   -0.917784    1.988422
     11          1           0        0.939242   -1.957153    0.942698
     12          6           0        2.400074    1.526641    0.121689
     13          1           0        2.824822    2.511480   -0.037221
     14          6           0        3.119623    0.428287   -0.247977
     15          1           0        4.085353    0.547852   -0.723900
     16          6           0        2.592636   -0.958956   -0.042799
     17          1           0        2.246423   -1.357949   -1.005214
     18          1           0        3.401580   -1.623929    0.270629
     19          6           0       -1.112786   -1.427748   -0.675736
     20          1           0       -0.556231   -2.329182   -0.898405
     21          6           0       -2.400074   -1.526641   -0.121689
     22          1           0       -2.824822   -2.511480    0.037221
     23          6           0       -1.459612    0.999279   -0.985076
     24          1           0       -0.939242    1.957153   -0.942698
     25          1           0       -1.889507    0.917784   -1.988422
     26          6           0       -2.592636    0.958956    0.042799
     27          1           0       -3.401580    1.623929   -0.270628
     28          1           0       -2.246422    1.357949    1.005214
 ---------------------------------------------------------------------

 SCF Done:  E(UwB97XD) =  -466.771994618     A.U. after   16 cycles

 Alpha  occ. eigenvalues --  -10.28841 -10.28572 -10.27495 -10.27266 -10.27243
 Alpha  occ. eigenvalues --  -10.27206 -10.26960 -10.26873 -10.26825 -10.26796
 Alpha  occ. eigenvalues --  -10.26658 -10.26560  -0.93887  -0.91909  -0.84090
 Alpha  occ. eigenvalues --   -0.83454  -0.82574  -0.80843  -0.70084  -0.69108
 Alpha  occ. eigenvalues --   -0.68546  -0.66755  -0.58909  -0.58225  -0.57347
 Alpha  occ. eigenvalues --   -0.55302  -0.52376  -0.51872  -0.49690  -0.48573
 Alpha  occ. eigenvalues --   -0.47967  -0.47054  -0.46740  -0.46317  -0.45465
 Alpha  occ. eigenvalues --   -0.43655  -0.40459  -0.39842  -0.38799  -0.38567
 Alpha  occ. eigenvalues --   -0.37651  -0.36183  -0.32044  -0.23630
 Alpha virt. eigenvalues --    0.01036   0.10893   0.13408   0.15551   0.15726
 Alpha virt. eigenvalues --    0.16360   0.17686   0.18528   0.19107   0.19419
 Alpha virt. eigenvalues --    0.19655   0.20228   0.21365   0.22480   0.23245

  Beta  occ. eigenvalues --  -10.28841 -10.28572 -10.27492 -10.27262 -10.27248
  Beta  occ. eigenvalues --  -10.27201 -10.26964 -10.26876 -10.26822 -10.26800
  Beta  occ. eigenvalues --  -10.26654 -10.26563  -0.93886  -0.91910  -0.84089
  Beta  occ. eigenvalues --   -0.83452  -0.82576  -0.80843  -0.70082  -0.69108
  Beta  occ. eigenvalues --   -0.68547  -0.66755  -0.58909  -0.58226  -0.57346
  Beta  occ. eigenvalues --   -0.55303  -0.52375  -0.51874  -0.49689  -0.48573
  Beta  occ. eigenvalues --   -0.47966  -0.47053  -0.46741  -0.46317  -0.45464
  Beta  occ. eigenvalues --   -0.43655  -0.40458  -0.39843  -0.38797  -0.38569
  Beta  occ. eigenvalues --   -0.37650  -0.36184  -0.32044  -0.23628
  Beta virt. eigenvalues --    0.01033   0.10894   0.13407   0.15548   0.15727
  Beta virt. eigenvalues --    0.16361   0.17686   0.18528   0.19107   0.19419
  Beta virt. eigenvalues --    0.19655   0.20227   0.21365   0.22482   0.23245

 Mulliken charges and spin densities:
               1          2
     1  C   -0.197175  -0.505752
     2  C   -0.184640   0.147507
     3  H    0.150174   0.020721
     4  H    0.165370  -0.011475
     5  C   -0.183230   0.587953
     6  C   -0.183095  -0.147496
     7  H    0.166416  -0.023752
     8  H    0.164724   0.011469
     9  C   -0.247801   0.010433
    10  H    0.134388  -0.003122
    11  H    0.148823  -0.001634
    12  C   -0.167699  -0.216410
    13  H    0.148845   0.008418
    14  C   -0.196975   0.505659
    15  H    0.150209  -0.020713
    16  C   -0.196286  -0.031572
    17  H    0.126497   0.028343
    18  H    0.135291   0.012272
    19  C   -0.184226  -0.587897
    20  H    0.166952   0.023741
    21  C   -0.166869   0.216406
    22  H    0.148925  -0.008422
    23  C   -0.247305  -0.010371
    24  H    0.149310   0.001614
    25  H    0.134156   0.003119
    26  C   -0.197901   0.031559
    27  H    0.135390  -0.012273
    28  H    0.127732  -0.028325
 Sum of Mulliken charges =  -0.00000  -0.00000

 Dipole moment (field-independent basis, Debye):
    X=             -0.0006    Y=             -0.0008    Z=             -0.0019  Tot=              0.0021
 Quadrupole moment (field-independent basis, Debye-Ang):
   XX=            -70.1457   YY=            -69.3579   ZZ=            -74.9330
   XY=             -2.8122   XZ=             -3.1047   YZ=             -0.4737

 Normal termination of Gaussian 16 at Tue Aug  4 17:01:05 2020.
