 Gaussian 16, Revision B.01,

 ----------------------------------------------------------------------
 #p uwb97xd guess=mix def2tzvp # scrf=(iefpcm,solvent=Cyclohexane,read)
  nosym 6d 10f
 ----------------------------------------------------------------------

 -----------------------
 endo-2 xp-pcm for eta=3
 -----------------------
 Symbolic Z-matrix:
 Charge =  0 Multiplicity = 1

 SCF Done:  E(UwB97XD) =  -466.827999459     A.U. after   15 cycles
 Normal termination of Gaussian 16 at Tue Aug  4 21:02:22 2020.

 ----------------------------------------------------------------------
 #p uwb97xd guess=mix def2tzvp # scrf=(iefpcm,solvent=Cyclohexane,read)
  nosym 6d 10f
 ----------------------------------------------------------------------

 -----------------------
 endo-2 xp-pcm for eta=3
 -----------------------
 Symbolic Z-matrix:
 Charge =  0 Multiplicity = 1

 SCF Done:  E(UwB97XD) =  -466.824469773     A.U. after   15 cycles
 Normal termination of Gaussian 16 at Tue Aug  4 21:07:16 2020.

 ----------------------------------------------------------------------
 #p uwb97xd guess=mix def2tzvp # scrf=(iefpcm,solvent=Cyclohexane,read)
  nosym 6d 10f
 ----------------------------------------------------------------------

 -----------------------
 endo-2 xp-pcm for eta=3
 -----------------------
 Symbolic Z-matrix:
 Charge =  0 Multiplicity = 1

 SCF Done:  E(UwB97XD) =  -466.819917698     A.U. after   15 cycles
 Normal termination of Gaussian 16 at Tue Aug  4 21:12:06 2020.

 ----------------------------------------------------------------------
 #p uwb97xd guess=mix def2tzvp # scrf=(iefpcm,solvent=Cyclohexane,read)
  nosym 6d 10f
 ----------------------------------------------------------------------

 -----------------------
 endo-2 xp-pcm for eta=3
 -----------------------
 Symbolic Z-matrix:
 Charge =  0 Multiplicity = 1

 SCF Done:  E(UwB97XD) =  -466.812536528     A.U. after   15 cycles
 Normal termination of Gaussian 16 at Tue Aug  4 21:16:57 2020.

 ----------------------------------------------------------------------
 #p uwb97xd guess=mix def2tzvp # scrf=(iefpcm,solvent=Cyclohexane,read)
  nosym 6d 10f
 ----------------------------------------------------------------------

 -----------------------
 endo-2 xp-pcm for eta=3
 -----------------------
 Symbolic Z-matrix:
 Charge =  0 Multiplicity = 1

 SCF Done:  E(UwB97XD) =  -466.803557206     A.U. after   14 cycles
 Normal termination of Gaussian 16 at Tue Aug  4 21:21:34 2020.

 ----------------------------------------------------------------------
 #p uwb97xd guess=mix def2tzvp # scrf=(iefpcm,solvent=Cyclohexane,read)
  nosym 6d 10f
 ----------------------------------------------------------------------

 -----------------------
 endo-2 xp-pcm for eta=3
 -----------------------
 Symbolic Z-matrix:
 Charge =  0 Multiplicity = 1

 SCF Done:  E(UwB97XD) =  -466.796943516     A.U. after   14 cycles
 Normal termination of Gaussian 16 at Tue Aug  4 21:26:10 2020.
 Gaussian 16:  ES64L-G16RevB.01 20-Dec-2017

                          Input orientation:
 ---------------------------------------------------------------------
 Center     Atomic      Atomic             Coordinates (Angstroms)
 Number     Number       Type             X           Y           Z
 ---------------------------------------------------------------------
      1          6           0       -3.140994   -0.425040    0.223816
      2          6           0       -0.406297   -0.126897   -0.659080
      3          1           0       -4.135653   -0.544691    0.635088
      4          1           0        0.317409   -0.130657   -1.478814
      5          6           0        1.108935    1.445531    0.607368
      6          6           0        0.406297    0.126897    0.659080
      7          1           0        0.573183    2.344629    0.884397
      8          1           0       -0.317409    0.130657    1.478814
      9          6           0        1.429977   -0.982064    0.932984
     10          1           0        1.831758   -0.829324    1.937981
     11          1           0        0.944143   -1.958831    0.930603
     12          6           0        2.409595    1.535044    0.144587
     13          1           0        2.868872    2.514015    0.060519
     14          6           0        3.140994    0.425040   -0.223816
     15          1           0        4.135653    0.544691   -0.635088
     16          6           0        2.588982   -0.955630   -0.063327
     17          1           0        2.260703   -1.337606   -1.039452
     18          1           0        3.377886   -1.638473    0.263228
     19          6           0       -1.108935   -1.445531   -0.607368
     20          1           0       -0.573183   -2.344629   -0.884397
     21          6           0       -2.409595   -1.535044   -0.144587
     22          1           0       -2.868872   -2.514015   -0.060519
     23          6           0       -1.429977    0.982064   -0.932984
     24          1           0       -0.944143    1.958831   -0.930603
     25          1           0       -1.831758    0.829324   -1.937981
     26          6           0       -2.588982    0.955630    0.063327
     27          1           0       -3.377886    1.638473   -0.263228
     28          1           0       -2.260703    1.337606    1.039452
 ---------------------------------------------------------------------

 SCF Done:  E(UwB97XD) =  -466.789633841     A.U. after   14 cycles

 Alpha  occ. eigenvalues --  -10.27891 -10.27767 -10.27627 -10.27388 -10.27186
 Alpha  occ. eigenvalues --  -10.27137 -10.26989 -10.26901 -10.26674 -10.26665
 Alpha  occ. eigenvalues --  -10.26561 -10.26542  -0.94593  -0.91675  -0.85091
 Alpha  occ. eigenvalues --   -0.83594  -0.82531  -0.79901  -0.70530  -0.69732
 Alpha  occ. eigenvalues --   -0.68146  -0.66527  -0.59164  -0.58341  -0.57724
 Alpha  occ. eigenvalues --   -0.55208  -0.52587  -0.51591  -0.49999  -0.47988
 Alpha  occ. eigenvalues --   -0.47963  -0.47588  -0.47246  -0.46325  -0.44802
 Alpha  occ. eigenvalues --   -0.43670  -0.40329  -0.39838  -0.38949  -0.37820
 Alpha  occ. eigenvalues --   -0.36681  -0.36407  -0.33720  -0.24281
 Alpha virt. eigenvalues --    0.01367   0.12019   0.13554   0.15265   0.15526
 Alpha virt. eigenvalues --    0.16706   0.17758   0.18431   0.19212   0.19397
 Alpha virt. eigenvalues --    0.19978   0.20320   0.21508   0.23069   0.23113

  Beta  occ. eigenvalues --  -10.27891 -10.27768 -10.27628 -10.27390 -10.27185
  Beta  occ. eigenvalues --  -10.27138 -10.26988 -10.26901 -10.26674 -10.26663
  Beta  occ. eigenvalues --  -10.26559 -10.26544  -0.94594  -0.91674  -0.85091
  Beta  occ. eigenvalues --   -0.83594  -0.82531  -0.79901  -0.70530  -0.69732
  Beta  occ. eigenvalues --   -0.68146  -0.66527  -0.59164  -0.58341  -0.57724
  Beta  occ. eigenvalues --   -0.55208  -0.52587  -0.51592  -0.49999  -0.47988
  Beta  occ. eigenvalues --   -0.47964  -0.47587  -0.47246  -0.46325  -0.44802
  Beta  occ. eigenvalues --   -0.43670  -0.40329  -0.39838  -0.38949  -0.37819
  Beta  occ. eigenvalues --   -0.36680  -0.36407  -0.33720  -0.24282
  Beta virt. eigenvalues --    0.01369   0.12018   0.13555   0.15266   0.15527
  Beta virt. eigenvalues --    0.16705   0.17759   0.18431   0.19211   0.19398
  Beta virt. eigenvalues --    0.19980   0.20317   0.21508   0.23069   0.23112

 Mulliken charges and spin densities:
               1          2
     1  C   -0.192525  -0.601561
     2  C   -0.144302   0.050738
     3  H    0.150165   0.024688
     4  H    0.153091  -0.008831
     5  C   -0.222218   0.612855
     6  C   -0.143833  -0.050742
     7  H    0.172500  -0.024891
     8  H    0.152978   0.008821
     9  C   -0.260217   0.009633
    10  H    0.135220  -0.000071
    11  H    0.149845  -0.000176
    12  C   -0.156770  -0.223778
    13  H    0.147405   0.008898
    14  C   -0.191378   0.601620
    15  H    0.150314  -0.024692
    16  C   -0.194940  -0.035627
    17  H    0.125790   0.033905
    18  H    0.135496   0.013870
    19  C   -0.222332  -0.612913
    20  H    0.172470   0.024883
    21  C   -0.155676   0.223857
    22  H    0.147169  -0.008896
    23  C   -0.257982  -0.009671
    24  H    0.149476   0.000189
    25  H    0.134187   0.000071
    26  C   -0.194661   0.035639
    27  H    0.135505  -0.013878
    28  H    0.125224  -0.033938
 Sum of Mulliken charges =  -0.00000  -0.00000

 Dipole moment (field-independent basis, Debye):
    X=             -0.0032    Y=              0.0007    Z=             -0.0031  Tot=              0.0045
 Quadrupole moment (field-independent basis, Debye-Ang):
   XX=            -69.6420   YY=            -69.5601   ZZ=            -75.0017
   XY=             -2.3357   XZ=             -2.5020   YZ=              0.2520

 Normal termination of Gaussian 16 at Tue Aug  4 21:30:45 2020.
