 Gaussian 16, Revision B.01,

 ----------------------------------------------------------------------
 #p uwb97xd guess=mix def2tzvp # scrf=(iefpcm,solvent=Cyclohexane,read)
  nosym 6d 10f
 ----------------------------------------------------------------------

 -----------------------
 endo-2 xp-pcm for eta=3
 -----------------------
 Symbolic Z-matrix:
 Charge =  0 Multiplicity = 1

 SCF Done:  E(UwB97XD) =  -466.850832724     A.U. after   17 cycles
 Normal termination of Gaussian 16 at Mon Aug  3 20:26:22 2020.

 ----------------------------------------------------------------------
 #p uwb97xd guess=mix def2tzvp # scrf=(iefpcm,solvent=Cyclohexane,read)
  nosym 6d 10f
 ----------------------------------------------------------------------

 -----------------------
 endo-2 xp-pcm for eta=3
 -----------------------
 Symbolic Z-matrix:
 Charge =  0 Multiplicity = 1

 SCF Done:  E(UwB97XD) =  -466.847390256     A.U. after   17 cycles
 Normal termination of Gaussian 16 at Mon Aug  3 20:31:46 2020.

 ----------------------------------------------------------------------
 #p uwb97xd guess=mix def2tzvp # scrf=(iefpcm,solvent=Cyclohexane,read)
  nosym 6d 10f
 ----------------------------------------------------------------------

 -----------------------
 endo-2 xp-pcm for eta=3
 -----------------------
 Symbolic Z-matrix:
 Charge =  0 Multiplicity = 1

 SCF Done:  E(UwB97XD) =  -466.843155027     A.U. after   17 cycles
 Normal termination of Gaussian 16 at Mon Aug  3 20:37:04 2020.

 ----------------------------------------------------------------------
 #p uwb97xd guess=mix def2tzvp # scrf=(iefpcm,solvent=Cyclohexane,read)
  nosym 6d 10f
 ----------------------------------------------------------------------

 -----------------------
 endo-2 xp-pcm for eta=3
 -----------------------
 Symbolic Z-matrix:
 Charge =  0 Multiplicity = 1

 SCF Done:  E(UwB97XD) =  -466.835510600     A.U. after   17 cycles
 Normal termination of Gaussian 16 at Mon Aug  3 20:42:19 2020.

 ----------------------------------------------------------------------
 #p uwb97xd guess=mix def2tzvp # scrf=(iefpcm,solvent=Cyclohexane,read)
  nosym 6d 10f
 ----------------------------------------------------------------------

 -----------------------
 endo-2 xp-pcm for eta=3
 -----------------------
 Symbolic Z-matrix:
 Charge =  0 Multiplicity = 1

 SCF Done:  E(UwB97XD) =  -466.825771968     A.U. after   17 cycles
 Normal termination of Gaussian 16 at Mon Aug  3 20:47:36 2020.

 ----------------------------------------------------------------------
 #p uwb97xd guess=mix def2tzvp # scrf=(iefpcm,solvent=Cyclohexane,read)
  nosym 6d 10f
 ----------------------------------------------------------------------

 -----------------------
 endo-2 xp-pcm for eta=3
 -----------------------
 Symbolic Z-matrix:
 Charge =  0 Multiplicity = 1

 SCF Done:  E(UwB97XD) =  -466.819720544     A.U. after   17 cycles
 Normal termination of Gaussian 16 at Mon Aug  3 20:52:54 2020.
 Gaussian 16:  ES64L-G16RevB.01 20-Dec-2017

                          Input orientation:
 ---------------------------------------------------------------------
 Center     Atomic      Atomic             Coordinates (Angstroms)
 Number     Number       Type             X           Y           Z
 ---------------------------------------------------------------------
      1          6           0       -3.115030   -0.438560    0.285445
      2          6           0       -0.828832   -0.276745   -1.380600
      3          1           0       -4.026619   -0.514692    0.866746
      4          1           0        0.088953   -0.205930   -1.951950
      5          6           0        1.236290    1.443298    0.887382
      6          6           0        0.828832    0.276745    1.380600
      7          1           0        0.652342    2.342795    1.043029
      8          1           0       -0.088953    0.205930    1.951950
      9          6           0        1.654704   -0.967003    1.216943
     10          1           0        2.279712   -1.077701    2.112893
     11          1           0        1.007187   -1.844793    1.185737
     12          6           0        2.487931    1.536308    0.133650
     13          1           0        2.889851    2.517413   -0.089428
     14          6           0        3.115030    0.438560   -0.285445
     15          1           0        4.026619    0.514692   -0.866746
     16          6           0        2.540720   -0.928204   -0.030413
     17          1           0        1.955227   -1.223717   -0.909655
     18          1           0        3.339904   -1.666148    0.059554
     19          6           0       -1.236290   -1.443298   -0.887382
     20          1           0       -0.652342   -2.342795   -1.043029
     21          6           0       -2.487931   -1.536308   -0.133650
     22          1           0       -2.889851   -2.517413    0.089428
     23          6           0       -1.654704    0.967003   -1.216943
     24          1           0       -1.007187    1.844793   -1.185737
     25          1           0       -2.279712    1.077701   -2.112893
     26          6           0       -2.540720    0.928204    0.030413
     27          1           0       -3.339904    1.666148   -0.059554
     28          1           0       -1.955227    1.223717    0.909655
 ---------------------------------------------------------------------

 SCF Done:  E(UwB97XD) =  -466.811422672     A.U. after   17 cycles

 Alpha  occ. eigenvalues --  -10.27240 -10.27237 -10.27132 -10.27132 -10.27093
 Alpha  occ. eigenvalues --  -10.27093 -10.27091 -10.27087 -10.26800 -10.26797
 Alpha  occ. eigenvalues --  -10.26585 -10.26577  -0.93111  -0.92747  -0.83114
 Alpha  occ. eigenvalues --   -0.83076  -0.82924  -0.82719  -0.70250  -0.70239
 Alpha  occ. eigenvalues --   -0.66947  -0.66926  -0.58727  -0.58593  -0.56455
 Alpha  occ. eigenvalues --   -0.55939  -0.52378  -0.51684  -0.49887  -0.49826
 Alpha  occ. eigenvalues --   -0.48939  -0.48519  -0.46224  -0.45960  -0.44125
 Alpha  occ. eigenvalues --   -0.43959  -0.40164  -0.40023  -0.38589  -0.38275
 Alpha  occ. eigenvalues --   -0.38225  -0.38134  -0.28783  -0.26911
 Alpha virt. eigenvalues --    0.05079   0.05701   0.13275   0.14466   0.16340
 Alpha virt. eigenvalues --    0.16723   0.17107   0.18068   0.18278   0.18938
 Alpha virt. eigenvalues --    0.19677   0.19715   0.20098   0.21223   0.22964

  Beta  occ. eigenvalues --  -10.27240 -10.27237 -10.27132 -10.27132 -10.27093
  Beta  occ. eigenvalues --  -10.27093 -10.27091 -10.27087 -10.26800 -10.26797
  Beta  occ. eigenvalues --  -10.26585 -10.26577  -0.93111  -0.92747  -0.83114
  Beta  occ. eigenvalues --   -0.83076  -0.82924  -0.82719  -0.70250  -0.70239
  Beta  occ. eigenvalues --   -0.66947  -0.66926  -0.58727  -0.58593  -0.56455
  Beta  occ. eigenvalues --   -0.55939  -0.52378  -0.51684  -0.49887  -0.49826
  Beta  occ. eigenvalues --   -0.48939  -0.48519  -0.46224  -0.45960  -0.44125
  Beta  occ. eigenvalues --   -0.43959  -0.40164  -0.40023  -0.38589  -0.38275
  Beta  occ. eigenvalues --   -0.38225  -0.38134  -0.28783  -0.26911
  Beta virt. eigenvalues --    0.05079   0.05701   0.13275   0.14466   0.16340
  Beta virt. eigenvalues --    0.16723   0.17107   0.18068   0.18278   0.18938
  Beta virt. eigenvalues --    0.19677   0.19715   0.20098   0.21223   0.22964

 Mulliken charges and spin densities:
               1          2
     1  C   -0.203980  -0.000002
     2  C   -0.198105   0.000001
     3  H    0.148685   0.000000
     4  H    0.169135  -0.000000
     5  C   -0.189308  -0.000002
     6  C   -0.200502   0.000002
     7  H    0.167403   0.000000
     8  H    0.169029  -0.000000
     9  C   -0.203366  -0.000001
    10  H    0.130727   0.000000
    11  H    0.137526   0.000000
    12  C   -0.164316   0.000001
    13  H    0.152549  -0.000000
    14  C   -0.203058  -0.000001
    15  H    0.148747   0.000000
    16  C   -0.190806   0.000001
    17  H    0.112549  -0.000000
    18  H    0.132861  -0.000000
    19  C   -0.190058  -0.000001
    20  H    0.166504  -0.000000
    21  C   -0.163770   0.000001
    22  H    0.152243   0.000000
    23  C   -0.205135   0.000001
    24  H    0.138182  -0.000000
    25  H    0.130798  -0.000000
    26  C   -0.190149  -0.000000
    27  H    0.132436   0.000000
    28  H    0.113179  -0.000000
 Sum of Mulliken charges =  -0.00000  -0.00000

 Dipole moment (field-independent basis, Debye):
    X=             -0.0020    Y=              0.0075    Z=              0.0029  Tot=              0.0082
 Quadrupole moment (field-independent basis, Debye-Ang):
   XX=            -70.6638   YY=            -68.0440   ZZ=            -74.7899
   XY=             -3.2489   XZ=             -4.0182   YZ=             -1.6867

 Normal termination of Gaussian 16 at Mon Aug  3 20:58:12 2020.
