 Gaussian 16, Revision B.01,
 Gaussian 16:  ES64L-G16RevB.01 20-Dec-2017

 ----------------------------------------------------------------------
 #p uwb97xd guess=mix def2tzvp # scrf=(iefpcm,solvent=Cyclohexane,read)
  nosym 6d 10f
 ----------------------------------------------------------------------

 -----------------------
 endo-2 xp-pcm for eta=3
 -----------------------
 Symbolic Z-matrix:
 Charge =  0 Multiplicity = 1

                          Input orientation:
 ---------------------------------------------------------------------
 Center     Atomic      Atomic             Coordinates (Angstroms)
 Number     Number       Type             X           Y           Z
 ---------------------------------------------------------------------
      1          6           0       -3.115030   -0.438560    0.285445
      2          6           0       -0.828832   -0.276745   -1.380600
      3          1           0       -4.026619   -0.514692    0.866746
      4          1           0        0.088953   -0.205930   -1.951950
      5          6           0        1.236290    1.443298    0.887382
      6          6           0        0.828832    0.276745    1.380600
      7          1           0        0.652342    2.342795    1.043029
      8          1           0       -0.088953    0.205930    1.951950
      9          6           0        1.654704   -0.967003    1.216943
     10          1           0        2.279712   -1.077701    2.112893
     11          1           0        1.007187   -1.844793    1.185737
     12          6           0        2.487931    1.536308    0.133650
     13          1           0        2.889851    2.517413   -0.089428
     14          6           0        3.115030    0.438560   -0.285445
     15          1           0        4.026619    0.514692   -0.866746
     16          6           0        2.540720   -0.928204   -0.030413
     17          1           0        1.955227   -1.223717   -0.909655
     18          1           0        3.339904   -1.666148    0.059554
     19          6           0       -1.236290   -1.443298   -0.887382
     20          1           0       -0.652342   -2.342795   -1.043029
     21          6           0       -2.487931   -1.536308   -0.133650
     22          1           0       -2.889851   -2.517413    0.089428
     23          6           0       -1.654704    0.967003   -1.216943
     24          1           0       -1.007187    1.844793   -1.185737
     25          1           0       -2.279712    1.077701   -2.112893
     26          6           0       -2.540720    0.928204    0.030413
     27          1           0       -3.339904    1.666148   -0.059554
     28          1           0       -1.955227    1.223717    0.909655
 ---------------------------------------------------------------------

 SCF Done:  E(UwB97XD) =  -466.860175619     A.U. after   17 cycles

 Alpha  occ. eigenvalues --  -10.28441 -10.28440 -10.28334 -10.28333 -10.28315
 Alpha  occ. eigenvalues --  -10.28314 -10.28241 -10.28239 -10.28023 -10.28022
 Alpha  occ. eigenvalues --  -10.27751 -10.27749  -0.94156  -0.93792  -0.84145
 Alpha  occ. eigenvalues --   -0.84118  -0.83959  -0.83764  -0.71290  -0.71282
 Alpha  occ. eigenvalues --   -0.67974  -0.67955  -0.59786  -0.59650  -0.57489
 Alpha  occ. eigenvalues --   -0.56974  -0.53423  -0.52729  -0.50952  -0.50892
 Alpha  occ. eigenvalues --   -0.50019  -0.49599  -0.47332  -0.47061  -0.45191
 Alpha  occ. eigenvalues --   -0.45018  -0.41252  -0.41107  -0.39671  -0.39296
 Alpha  occ. eigenvalues --   -0.39276  -0.39140  -0.29810  -0.27946
 Alpha virt. eigenvalues --    0.03854   0.04520   0.10525   0.12216   0.13284
 Alpha virt. eigenvalues --    0.14282   0.14592   0.15492   0.15591   0.15914
 Alpha virt. eigenvalues --    0.16871   0.16898   0.17118   0.18216   0.19886

  Beta  occ. eigenvalues --  -10.28441 -10.28440 -10.28334 -10.28333 -10.28315
  Beta  occ. eigenvalues --  -10.28314 -10.28241 -10.28239 -10.28023 -10.28022
  Beta  occ. eigenvalues --  -10.27751 -10.27749  -0.94156  -0.93792  -0.84145
  Beta  occ. eigenvalues --   -0.84118  -0.83959  -0.83764  -0.71290  -0.71282
  Beta  occ. eigenvalues --   -0.67974  -0.67955  -0.59786  -0.59650  -0.57489
  Beta  occ. eigenvalues --   -0.56974  -0.53423  -0.52729  -0.50952  -0.50892
  Beta  occ. eigenvalues --   -0.50019  -0.49599  -0.47332  -0.47061  -0.45191
  Beta  occ. eigenvalues --   -0.45018  -0.41252  -0.41107  -0.39671  -0.39296
  Beta  occ. eigenvalues --   -0.39276  -0.39140  -0.29810  -0.27946
  Beta virt. eigenvalues --    0.03854   0.04520   0.10525   0.12216   0.13284
  Beta virt. eigenvalues --    0.14282   0.14592   0.15492   0.15591   0.15914
  Beta virt. eigenvalues --    0.16871   0.16898   0.17118   0.18216   0.19886

 Mulliken charges and spin densities:
               1          2
     1  C   -0.209875  -0.000001
     2  C   -0.184319  -0.000000
     3  H    0.142425   0.000000
     4  H    0.155941   0.000000
     5  C   -0.166313  -0.000001
     6  C   -0.184309   0.000000
     7  H    0.150621   0.000000
     8  H    0.156070  -0.000000
     9  C   -0.181106  -0.000001
    10  H    0.117285   0.000000
    11  H    0.129897   0.000000
    12  C   -0.157756   0.000000
    13  H    0.145680  -0.000000
    14  C   -0.209765   0.000001
    15  H    0.142410  -0.000000
    16  C   -0.175048   0.000000
    17  H    0.107691  -0.000000
    18  H    0.124650  -0.000000
    19  C   -0.166149   0.000001
    20  H    0.150574  -0.000000
    21  C   -0.157685  -0.000000
    22  H    0.145664   0.000000
    23  C   -0.181143   0.000001
    24  H    0.129929  -0.000000
    25  H    0.117292  -0.000000
    26  C   -0.175046  -0.000000
    27  H    0.124659   0.000000
    28  H    0.107725   0.000000
 Sum of Mulliken charges =  -0.00000  -0.00000

 Dipole moment (field-independent basis, Debye):
    X=             -0.0003    Y=              0.0007    Z=              0.0001  Tot=              0.0007
 Quadrupole moment (field-independent basis, Debye-Ang):
   XX=            -72.8678   YY=            -69.7343   ZZ=            -76.3874
   XY=             -3.1908   XZ=             -4.0751   YZ=             -1.6837

 Normal termination of Gaussian 16 at Mon Aug  3 13:57:07 2020.
