 Gaussian 16, Revision B.01,

 ----------------------------------------------------------------------
 #p uwb97xd guess=mix def2tzvp # scrf=(iefpcm,solvent=Cyclohexane,read)
  nosym 6d 10f
 ----------------------------------------------------------------------

 -----------------------
 endo-2 xp-pcm for eta=3
 -----------------------
 Symbolic Z-matrix:
 Charge =  0 Multiplicity = 1

 SCF Done:  E(UwB97XD) =  -466.836528611     A.U. after   18 cycles
 Normal termination of Gaussian 16 at Tue Aug  4 07:23:43 2020.

 ----------------------------------------------------------------------
 #p uwb97xd guess=mix def2tzvp # scrf=(iefpcm,solvent=Cyclohexane,read)
  nosym 6d 10f
 ----------------------------------------------------------------------

 -----------------------
 endo-2 xp-pcm for eta=3
 -----------------------
 Symbolic Z-matrix:
 Charge =  0 Multiplicity = 1

 SCF Done:  E(UwB97XD) =  -466.833949140     A.U. after   18 cycles
 Normal termination of Gaussian 16 at Tue Aug  4 07:29:27 2020.

 ----------------------------------------------------------------------
 #p uwb97xd guess=mix def2tzvp # scrf=(iefpcm,solvent=Cyclohexane,read)
  nosym 6d 10f
 ----------------------------------------------------------------------

 -----------------------
 endo-2 xp-pcm for eta=3
 -----------------------
 Symbolic Z-matrix:
 Charge =  0 Multiplicity = 1

 SCF Done:  E(UwB97XD) =  -466.829401833     A.U. after   18 cycles
 Normal termination of Gaussian 16 at Tue Aug  4 07:35:09 2020.

 ----------------------------------------------------------------------
 #p uwb97xd guess=mix def2tzvp # scrf=(iefpcm,solvent=Cyclohexane,read)
  nosym 6d 10f
 ----------------------------------------------------------------------

 -----------------------
 endo-2 xp-pcm for eta=3
 -----------------------
 Symbolic Z-matrix:
 Charge =  0 Multiplicity = 1

 SCF Done:  E(UwB97XD) =  -466.822047060     A.U. after   18 cycles
 Normal termination of Gaussian 16 at Tue Aug  4 07:40:53 2020.

 ----------------------------------------------------------------------
 #p uwb97xd guess=mix def2tzvp # scrf=(iefpcm,solvent=Cyclohexane,read)
  nosym 6d 10f
 ----------------------------------------------------------------------

 -----------------------
 endo-2 xp-pcm for eta=3
 -----------------------
 Symbolic Z-matrix:
 Charge =  0 Multiplicity = 1

 SCF Done:  E(UwB97XD) =  -466.811815841     A.U. after   18 cycles
 Normal termination of Gaussian 16 at Tue Aug  4 07:46:36 2020.

 ----------------------------------------------------------------------
 #p uwb97xd guess=mix def2tzvp # scrf=(iefpcm,solvent=Cyclohexane,read)
  nosym 6d 10f
 ----------------------------------------------------------------------

 -----------------------
 endo-2 xp-pcm for eta=3
 -----------------------
 Symbolic Z-matrix:
 Charge =  0 Multiplicity = 1

 SCF Done:  E(UwB97XD) =  -466.805913024     A.U. after   18 cycles
 Normal termination of Gaussian 16 at Tue Aug  4 07:52:21 2020.
 Gaussian 16:  ES64L-G16RevB.01 20-Dec-2017

                          Input orientation:
 ---------------------------------------------------------------------
 Center     Atomic      Atomic             Coordinates (Angstroms)
 Number     Number       Type             X           Y           Z
 ---------------------------------------------------------------------
      1          6           0       -3.123533   -0.438909    0.249907
      2          6           0       -0.634623   -0.226767   -1.083823
      3          1           0       -4.085324   -0.546070    0.738063
      4          1           0        0.336814   -0.133008   -1.549979
      5          6           0        1.109786    1.414310    0.718484
      6          6           0        0.634623    0.226767    1.083823
      7          1           0        0.519777    2.312927    0.848046
      8          1           0       -0.336814    0.133008    1.549979
      9          6           0        1.495934   -1.001134    1.028869
     10          1           0        1.973156   -1.081856    2.013692
     11          1           0        0.887322   -1.896884    0.916876
     12          6           0        2.431004    1.520477    0.106878
     13          1           0        2.838163    2.507840   -0.075868
     14          6           0        3.123533    0.438909   -0.249907
     15          1           0        4.085324    0.546070   -0.738063
     16          6           0        2.588421   -0.951995   -0.044511
     17          1           0        2.216156   -1.333084   -1.003507
     18          1           0        3.400666   -1.624754    0.238421
     19          6           0       -1.109786   -1.414310   -0.718484
     20          1           0       -0.519777   -2.312927   -0.848046
     21          6           0       -2.431004   -1.520477   -0.106878
     22          1           0       -2.838163   -2.507840    0.075868
     23          6           0       -1.495934    1.001134   -1.028869
     24          1           0       -0.887321    1.896884   -0.916876
     25          1           0       -1.973156    1.081856   -2.013692
     26          6           0       -2.588421    0.951995    0.044511
     27          1           0       -3.400666    1.624754   -0.238421
     28          1           0       -2.216156    1.333084    1.003507
 ---------------------------------------------------------------------

 SCF Done:  E(UwB97XD) =  -466.797133383     A.U. after   18 cycles

 Alpha  occ. eigenvalues --  -10.27382 -10.27381 -10.27116 -10.27113 -10.27026
 Alpha  occ. eigenvalues --  -10.27025 -10.27017 -10.27013 -10.26776 -10.26775
 Alpha  occ. eigenvalues --  -10.26146 -10.26146  -0.93494  -0.92474  -0.83644
 Alpha  occ. eigenvalues --   -0.83322  -0.82644  -0.82559  -0.70660  -0.70031
 Alpha  occ. eigenvalues --   -0.67273  -0.66867  -0.58849  -0.58769  -0.56581
 Alpha  occ. eigenvalues --   -0.55463  -0.52690  -0.51919  -0.49994  -0.49905
 Alpha  occ. eigenvalues --   -0.48818  -0.48081  -0.46520  -0.45819  -0.44674
 Alpha  occ. eigenvalues --   -0.43847  -0.40400  -0.39927  -0.38849  -0.38222
 Alpha  occ. eigenvalues --   -0.38151  -0.37732  -0.29137  -0.25752
 Alpha virt. eigenvalues --    0.03882   0.07162   0.13383   0.15067   0.16602
 Alpha virt. eigenvalues --    0.16805   0.17661   0.18310   0.18703   0.18954
 Alpha virt. eigenvalues --    0.19441   0.19463   0.20340   0.21292   0.22979

  Beta  occ. eigenvalues --  -10.27382 -10.27381 -10.27116 -10.27113 -10.27026
  Beta  occ. eigenvalues --  -10.27025 -10.27017 -10.27013 -10.26776 -10.26775
  Beta  occ. eigenvalues --  -10.26146 -10.26146  -0.93494  -0.92474  -0.83644
  Beta  occ. eigenvalues --   -0.83322  -0.82644  -0.82559  -0.70660  -0.70031
  Beta  occ. eigenvalues --   -0.67273  -0.66867  -0.58849  -0.58769  -0.56581
  Beta  occ. eigenvalues --   -0.55463  -0.52690  -0.51919  -0.49994  -0.49905
  Beta  occ. eigenvalues --   -0.48818  -0.48081  -0.46520  -0.45819  -0.44674
  Beta  occ. eigenvalues --   -0.43847  -0.40400  -0.39927  -0.38849  -0.38222
  Beta  occ. eigenvalues --   -0.38151  -0.37732  -0.29137  -0.25752
  Beta virt. eigenvalues --    0.03882   0.07162   0.13383   0.15067   0.16602
  Beta virt. eigenvalues --    0.16805   0.17661   0.18310   0.18703   0.18954
  Beta virt. eigenvalues --    0.19441   0.19463   0.20340   0.21292   0.22979

 Mulliken charges and spin densities:
               1          2
     1  C   -0.202991  -0.000000
     2  C   -0.206840   0.000000
     3  H    0.147815   0.000000
     4  H    0.181083  -0.000000
     5  C   -0.175918  -0.000000
     6  C   -0.209467  -0.000000
     7  H    0.165021   0.000000
     8  H    0.183134   0.000000
     9  C   -0.237853  -0.000001
    10  H    0.133523   0.000000
    11  H    0.153399   0.000000
    12  C   -0.167909  -0.000000
    13  H    0.150897   0.000000
    14  C   -0.203942   0.000000
    15  H    0.147790  -0.000000
    16  C   -0.196656   0.000000
    17  H    0.123598  -0.000000
    18  H    0.134430  -0.000000
    19  C   -0.174617  -0.000000
    20  H    0.164700  -0.000000
    21  C   -0.169055   0.000000
    22  H    0.150609  -0.000000
    23  C   -0.237444   0.000001
    24  H    0.152403  -0.000000
    25  H    0.133125  -0.000000
    26  C   -0.196916  -0.000000
    27  H    0.134466   0.000000
    28  H    0.123612   0.000000
 Sum of Mulliken charges =  -0.00000  -0.00000

 Dipole moment (field-independent basis, Debye):
    X=             -0.0027    Y=             -0.0012    Z=              0.0005  Tot=              0.0030
 Quadrupole moment (field-independent basis, Debye-Ang):
   XX=            -70.1691   YY=            -68.2031   ZZ=            -75.7124
   XY=             -3.4027   XZ=             -3.4055   YZ=             -1.6087

 Normal termination of Gaussian 16 at Tue Aug  4 07:58:02 2020.
