 Gaussian 16, Revision B.01,
 Gaussian 16:  ES64L-G16RevB.01 20-Dec-2017

 ----------------------------------------------------------------------
 #p uwb97xd guess=mix def2tzvp # scrf=(iefpcm,solvent=Cyclohexane,read)
  nosym 6d 10f
 ----------------------------------------------------------------------

 -----------------------
 endo-2 xp-pcm for eta=3
 -----------------------
 Symbolic Z-matrix:
 Charge =  0 Multiplicity = 1

                          Input orientation:
 ---------------------------------------------------------------------
 Center     Atomic      Atomic             Coordinates (Angstroms)
 Number     Number       Type             X           Y           Z
 ---------------------------------------------------------------------
      1          6           0       -3.120849   -0.437571    0.247983
      2          6           0       -0.595896   -0.213392   -1.011977
      3          1           0       -4.084599   -0.548890    0.731234
      4          1           0        0.369499   -0.121508   -1.489233
      5          6           0        1.095787    1.409118    0.700116
      6          6           0        0.595896    0.213392    1.011977
      7          1           0        0.513469    2.310071    0.845290
      8          1           0       -0.369499    0.121508    1.489233
      9          6           0        1.478063   -1.000287    1.004227
     10          1           0        1.940410   -1.028087    1.998902
     11          1           0        0.895946   -1.915783    0.915280
     12          6           0        2.423651    1.516981    0.110100
     13          1           0        2.832064    2.505394   -0.064213
     14          6           0        3.120849    0.437571   -0.247983
     15          1           0        4.084599    0.548890   -0.731234
     16          6           0        2.590846   -0.955955   -0.045910
     17          1           0        2.243218   -1.349244   -1.009243
     18          1           0        3.400776   -1.620708    0.261854
     19          6           0       -1.095787   -1.409118   -0.700116
     20          1           0       -0.513469   -2.310071   -0.845290
     21          6           0       -2.423651   -1.516981   -0.110100
     22          1           0       -2.832064   -2.505394    0.064213
     23          6           0       -1.478063    1.000287   -1.004227
     24          1           0       -0.895946    1.915783   -0.915280
     25          1           0       -1.940410    1.028087   -1.998902
     26          6           0       -2.590846    0.955955    0.045910
     27          1           0       -3.400776    1.620708   -0.261855
     28          1           0       -2.243218    1.349244    1.009243
 ---------------------------------------------------------------------

 SCF Done:  E(UwB97XD) =  -466.838963067     A.U. after   18 cycles

 Alpha  occ. eigenvalues --  -10.28633 -10.28632 -10.28393 -10.28392 -10.28263
 Alpha  occ. eigenvalues --  -10.28262 -10.28211 -10.28211 -10.28018 -10.28017
 Alpha  occ. eigenvalues --  -10.27212 -10.27211  -0.94784  -0.93531  -0.84906
 Alpha  occ. eigenvalues --   -0.84434  -0.83697  -0.83475  -0.71750  -0.70994
 Alpha  occ. eigenvalues --   -0.68526  -0.67867  -0.59986  -0.59955  -0.57799
 Alpha  occ. eigenvalues --   -0.56442  -0.53653  -0.53096  -0.51130  -0.50910
 Alpha  occ. eigenvalues --   -0.49917  -0.49051  -0.47728  -0.47009  -0.46014
 Alpha  occ. eigenvalues --   -0.44856  -0.41568  -0.41037  -0.39978  -0.39282
 Alpha  occ. eigenvalues --   -0.39183  -0.38566  -0.30497  -0.26166
 Alpha virt. eigenvalues --    0.01992   0.06582   0.10481   0.12378   0.13446
 Alpha virt. eigenvalues --    0.14546   0.14835   0.15663   0.15802   0.16146
 Alpha virt. eigenvalues --    0.16526   0.17315   0.17446   0.18413   0.19933

  Beta  occ. eigenvalues --  -10.28633 -10.28632 -10.28393 -10.28392 -10.28263
  Beta  occ. eigenvalues --  -10.28262 -10.28211 -10.28211 -10.28018 -10.28017
  Beta  occ. eigenvalues --  -10.27212 -10.27211  -0.94784  -0.93531  -0.84906
  Beta  occ. eigenvalues --   -0.84434  -0.83697  -0.83475  -0.71750  -0.70994
  Beta  occ. eigenvalues --   -0.68526  -0.67867  -0.59986  -0.59955  -0.57799
  Beta  occ. eigenvalues --   -0.56442  -0.53653  -0.53096  -0.51130  -0.50910
  Beta  occ. eigenvalues --   -0.49917  -0.49051  -0.47728  -0.47009  -0.46014
  Beta  occ. eigenvalues --   -0.44856  -0.41568  -0.41037  -0.39978  -0.39282
  Beta  occ. eigenvalues --   -0.39183  -0.38566  -0.30497  -0.26166
  Beta virt. eigenvalues --    0.01992   0.06582   0.10481   0.12378   0.13446
  Beta virt. eigenvalues --    0.14546   0.14835   0.15663   0.15802   0.16146
  Beta virt. eigenvalues --    0.16526   0.17315   0.17446   0.18413   0.19933

 Mulliken charges and spin densities:
               1          2
     1  C   -0.209176  -0.000000
     2  C   -0.200938   0.000000
     3  H    0.141627  -0.000000
     4  H    0.174029   0.000000
     5  C   -0.145779   0.000001
     6  C   -0.200990  -0.000000
     7  H    0.152735   0.000000
     8  H    0.173984  -0.000000
     9  C   -0.210620   0.000000
    10  H    0.120639  -0.000000
    11  H    0.144079  -0.000000
    12  C   -0.174623   0.000001
    13  H    0.144569  -0.000000
    14  C   -0.209242  -0.000000
    15  H    0.141623   0.000000
    16  C   -0.178598  -0.000000
    17  H    0.115427   0.000000
    18  H    0.126808   0.000000
    19  C   -0.145837  -0.000001
    20  H    0.152649  -0.000000
    21  C   -0.174715  -0.000000
    22  H    0.144578   0.000000
    23  C   -0.210602  -0.000000
    24  H    0.144122   0.000000
    25  H    0.120650   0.000000
    26  C   -0.178648   0.000000
    27  H    0.126824  -0.000000
    28  H    0.115424  -0.000000
 Sum of Mulliken charges =  -0.00000   0.00000

 Dipole moment (field-independent basis, Debye):
    X=              0.0004    Y=              0.0004    Z=             -0.0001  Tot=              0.0006
 Quadrupole moment (field-independent basis, Debye-Ang):
   XX=            -72.3180   YY=            -69.9444   ZZ=            -77.1768
   XY=             -3.3183   XZ=             -3.2663   YZ=             -1.4649

 Normal termination of Gaussian 16 at Mon Aug  3 15:43:02 2020.
