 Gaussian 16, Revision B.01,
 Gaussian 16:  ES64L-G16RevB.01 20-Dec-2017

 ----------------------------------------------------------------------
 #p uwb97xd guess=mix def2tzvp # scrf=(iefpcm,solvent=Cyclohexane,read)
  nosym 6d 10f
 ----------------------------------------------------------------------

 -----------------------
 endo-2 xp-pcm for eta=3
 -----------------------
 Symbolic Z-matrix:
 Charge =  0 Multiplicity = 1

                          Input orientation:
 ---------------------------------------------------------------------
 Center     Atomic      Atomic             Coordinates (Angstroms)
 Number     Number       Type             X           Y           Z
 ---------------------------------------------------------------------
      1          6           0       -3.123434   -0.440315    0.275397
      2          6           0       -0.786456   -0.264710   -1.317722
      3          1           0       -4.049438   -0.523755    0.832457
      4          1           0        0.147212   -0.188449   -1.861678
      5          6           0        1.206095    1.434790    0.844539
      6          6           0        0.786456    0.264710    1.317722
      7          1           0        0.616717    2.332368    0.990121
      8          1           0       -0.147212    0.188449    1.861678
      9          6           0        1.615689   -0.978810    1.173085
     10          1           0        2.198299   -1.101438    2.095398
     11          1           0        0.967232   -1.853572    1.105075
     12          6           0        2.475417    1.533757    0.122289
     13          1           0        2.875313    2.517075   -0.094658
     14          6           0        3.123434    0.440315   -0.275397
     15          1           0        4.049438    0.523755   -0.832457
     16          6           0        2.559757   -0.933106   -0.031997
     17          1           0        2.026432   -1.249959   -0.936638
     18          1           0        3.367180   -1.654954    0.104310
     19          6           0       -1.206095   -1.434790   -0.844539
     20          1           0       -0.616717   -2.332368   -0.990121
     21          6           0       -2.475417   -1.533757   -0.122289
     22          1           0       -2.875313   -2.517076    0.094658
     23          6           0       -1.615689    0.978810   -1.173085
     24          1           0       -0.967232    1.853572   -1.105075
     25          1           0       -2.198299    1.101438   -2.095398
     26          6           0       -2.559757    0.933106    0.031997
     27          1           0       -3.367180    1.654954   -0.104310
     28          1           0       -2.026432    1.249959    0.936638
 ---------------------------------------------------------------------

 SCF Done:  E(UwB97XD) =  -466.859310496     A.U. after   18 cycles

 Alpha  occ. eigenvalues --  -10.28491 -10.28490 -10.28330 -10.28328 -10.28312
 Alpha  occ. eigenvalues --  -10.28311 -10.28226 -10.28225 -10.28022 -10.28021
 Alpha  occ. eigenvalues --  -10.27687 -10.27686  -0.94177  -0.93726  -0.84218
 Alpha  occ. eigenvalues --   -0.84154  -0.83932  -0.83759  -0.71380  -0.71273
 Alpha  occ. eigenvalues --   -0.67991  -0.67975  -0.59791  -0.59649  -0.57449
 Alpha  occ. eigenvalues --   -0.56857  -0.53542  -0.52779  -0.50990  -0.50933
 Alpha  occ. eigenvalues --   -0.49985  -0.49538  -0.47363  -0.47009  -0.45152
 Alpha  occ. eigenvalues --   -0.45125  -0.41291  -0.41085  -0.39725  -0.39323
 Alpha  occ. eigenvalues --   -0.39290  -0.39093  -0.29825  -0.27811
 Alpha virt. eigenvalues --    0.03692   0.04691   0.10514   0.12228   0.13316
 Alpha virt. eigenvalues --    0.14356   0.14720   0.15543   0.15648   0.15859
 Alpha virt. eigenvalues --    0.16839   0.16885   0.17130   0.18206   0.19919

  Beta  occ. eigenvalues --  -10.28491 -10.28490 -10.28330 -10.28328 -10.28312
  Beta  occ. eigenvalues --  -10.28311 -10.28226 -10.28225 -10.28022 -10.28021
  Beta  occ. eigenvalues --  -10.27687 -10.27686  -0.94177  -0.93726  -0.84218
  Beta  occ. eigenvalues --   -0.84154  -0.83932  -0.83759  -0.71380  -0.71273
  Beta  occ. eigenvalues --   -0.67991  -0.67975  -0.59791  -0.59649  -0.57449
  Beta  occ. eigenvalues --   -0.56857  -0.53542  -0.52779  -0.50990  -0.50933
  Beta  occ. eigenvalues --   -0.49985  -0.49538  -0.47363  -0.47009  -0.45152
  Beta  occ. eigenvalues --   -0.45125  -0.41291  -0.41085  -0.39725  -0.39323
  Beta  occ. eigenvalues --   -0.39290  -0.39093  -0.29825  -0.27811
  Beta virt. eigenvalues --    0.03692   0.04691   0.10514   0.12228   0.13316
  Beta virt. eigenvalues --    0.14356   0.14720   0.15543   0.15648   0.15859
  Beta virt. eigenvalues --    0.16839   0.16885   0.17130   0.18206   0.19919

 Mulliken charges and spin densities:
               1          2
     1  C   -0.210466  -0.000000
     2  C   -0.182390   0.000000
     3  H    0.142217   0.000000
     4  H    0.157732  -0.000000
     5  C   -0.168466  -0.000000
     6  C   -0.182447  -0.000000
     7  H    0.151925   0.000000
     8  H    0.157851   0.000000
     9  C   -0.190889  -0.000000
    10  H    0.117973   0.000000
    11  H    0.133108   0.000000
    12  C   -0.156177   0.000000
    13  H    0.145684  -0.000000
    14  C   -0.210384   0.000000
    15  H    0.142209  -0.000000
    16  C   -0.175107   0.000000
    17  H    0.109587  -0.000000
    18  H    0.125137  -0.000000
    19  C   -0.168441  -0.000000
    20  H    0.151932  -0.000000
    21  C   -0.156115   0.000000
    22  H    0.145671   0.000000
    23  C   -0.190815   0.000000
    24  H    0.133026  -0.000000
    25  H    0.117987  -0.000000
    26  C   -0.175050  -0.000000
    27  H    0.125146   0.000000
    28  H    0.109564   0.000000
 Sum of Mulliken charges =  -0.00000   0.00000

 Dipole moment (field-independent basis, Debye):
    X=             -0.0001    Y=              0.0003    Z=              0.0002  Tot=              0.0003
 Quadrupole moment (field-independent basis, Debye-Ang):
   XX=            -72.6329   YY=            -69.7743   ZZ=            -76.6318
   XY=             -3.2512   XZ=             -3.9384   YZ=             -1.7208

 Normal termination of Gaussian 16 at Mon Aug  3 14:17:49 2020.
