 Gaussian 16, Revision B.01,
 Gaussian 16:  ES64L-G16RevB.01 20-Dec-2017

 ----------------------------------------------------------------------
 #p uwb97xd guess=mix def2tzvp # scrf=(iefpcm,solvent=Cyclohexane,read)
  nosym 6d 10f
 ----------------------------------------------------------------------

 -----------------------
 endo-2 xp-pcm for eta=3
 -----------------------
 Symbolic Z-matrix:
 Charge =  0 Multiplicity = 1

                          Input orientation:
 ---------------------------------------------------------------------
 Center     Atomic      Atomic             Coordinates (Angstroms)
 Number     Number       Type             X           Y           Z
 ---------------------------------------------------------------------
      1          6           0       -3.124680   -0.440685    0.273036
      2          6           0       -0.775792   -0.261985   -1.302176
      3          1           0       -4.054066   -0.525819    0.824190
      4          1           0        0.161604   -0.184531   -1.839436
      5          6           0        1.198536    1.432924    0.834184
      6          6           0        0.775792    0.261985    1.302176
      7          1           0        0.608196    2.330179    0.977711
      8          1           0       -0.161604    0.184531    1.839436
      9          6           0        1.605227   -0.981794    1.161635
     10          1           0        2.176937   -1.108268    2.090145
     11          1           0        0.956297   -1.855279    1.083849
     12          6           0        2.471867    1.533139    0.119408
     13          1           0        2.871405    2.516926   -0.096077
     14          6           0        3.124680    0.440685   -0.273036
     15          1           0        4.054066    0.525819   -0.824190
     16          6           0        2.563488   -0.934271   -0.032474
     17          1           0        2.043317   -1.256129   -0.942998
     18          1           0        3.372415   -1.652191    0.115362
     19          6           0       -1.198536   -1.432924   -0.834184
     20          1           0       -0.608196   -2.330179   -0.977711
     21          6           0       -2.471867   -1.533139   -0.119408
     22          1           0       -2.871405   -2.516926    0.096077
     23          6           0       -1.605227    0.981794   -1.161635
     24          1           0       -0.956297    1.855279   -1.083849
     25          1           0       -2.176937    1.108268   -2.090145
     26          6           0       -2.563488    0.934271    0.032474
     27          1           0       -3.372415    1.652191   -0.115362
     28          1           0       -2.043317    1.256129    0.942998
 ---------------------------------------------------------------------

 SCF Done:  E(UwB97XD) =  -466.858973460     A.U. after   17 cycles

 Alpha  occ. eigenvalues --  -10.28503 -10.28502 -10.28327 -10.28325 -10.28312
 Alpha  occ. eigenvalues --  -10.28310 -10.28223 -10.28222 -10.28022 -10.28020
 Alpha  occ. eigenvalues --  -10.27671 -10.27670  -0.94186  -0.93709  -0.84240
 Alpha  occ. eigenvalues --   -0.84167  -0.83922  -0.83756  -0.71405  -0.71269
 Alpha  occ. eigenvalues --   -0.68003  -0.67976  -0.59794  -0.59651  -0.57441
 Alpha  occ. eigenvalues --   -0.56825  -0.53577  -0.52793  -0.51000  -0.50944
 Alpha  occ. eigenvalues --   -0.49976  -0.49521  -0.47374  -0.46995  -0.45156
 Alpha  occ. eigenvalues --   -0.45142  -0.41303  -0.41079  -0.39740  -0.39330
 Alpha  occ. eigenvalues --   -0.39289  -0.39081  -0.29830  -0.27774
 Alpha virt. eigenvalues --    0.03642   0.04740   0.10513   0.12236   0.13324
 Alpha virt. eigenvalues --    0.14377   0.14748   0.15561   0.15658   0.15851
 Alpha virt. eigenvalues --    0.16827   0.16886   0.17135   0.18204   0.19927

  Beta  occ. eigenvalues --  -10.28503 -10.28502 -10.28327 -10.28325 -10.28312
  Beta  occ. eigenvalues --  -10.28310 -10.28223 -10.28222 -10.28022 -10.28020
  Beta  occ. eigenvalues --  -10.27671 -10.27670  -0.94186  -0.93709  -0.84240
  Beta  occ. eigenvalues --   -0.84167  -0.83922  -0.83756  -0.71405  -0.71269
  Beta  occ. eigenvalues --   -0.68003  -0.67976  -0.59794  -0.59651  -0.57441
  Beta  occ. eigenvalues --   -0.56825  -0.53577  -0.52793  -0.51000  -0.50944
  Beta  occ. eigenvalues --   -0.49976  -0.49521  -0.47374  -0.46995  -0.45156
  Beta  occ. eigenvalues --   -0.45142  -0.41303  -0.41079  -0.39740  -0.39330
  Beta  occ. eigenvalues --   -0.39289  -0.39081  -0.29830  -0.27774
  Beta virt. eigenvalues --    0.03642   0.04740   0.10513   0.12236   0.13324
  Beta virt. eigenvalues --    0.14377   0.14748   0.15561   0.15658   0.15851
  Beta virt. eigenvalues --    0.16827   0.16886   0.17135   0.18204   0.19927

 Mulliken charges and spin densities:
               1          2
     1  C   -0.210345  -0.000001
     2  C   -0.182403   0.000000
     3  H    0.142171   0.000000
     4  H    0.158194   0.000000
     5  C   -0.169176  -0.000001
     6  C   -0.182449   0.000000
     7  H    0.152435   0.000000
     8  H    0.158372  -0.000000
     9  C   -0.192623  -0.000001
    10  H    0.118133   0.000000
    11  H    0.133774   0.000000
    12  C   -0.156142   0.000000
    13  H    0.145664  -0.000000
    14  C   -0.210249   0.000001
    15  H    0.142165  -0.000000
    16  C   -0.175067   0.000000
    17  H    0.109923   0.000000
    18  H    0.125247  -0.000000
    19  C   -0.169028   0.000000
    20  H    0.152438  -0.000000
    21  C   -0.156098   0.000000
    22  H    0.145652   0.000000
    23  C   -0.192582   0.000001
    24  H    0.133682  -0.000000
    25  H    0.118143  -0.000000
    26  C   -0.175051  -0.000000
    27  H    0.125254   0.000000
    28  H    0.109964  -0.000000
 Sum of Mulliken charges =  -0.00000  -0.00000

 Dipole moment (field-independent basis, Debye):
    X=             -0.0002    Y=              0.0003    Z=              0.0002  Tot=              0.0004
 Quadrupole moment (field-independent basis, Debye-Ang):
   XX=            -72.5806   YY=            -69.7834   ZZ=            -76.6919
   XY=             -3.2646   XZ=             -3.9059   YZ=             -1.7264

 Normal termination of Gaussian 16 at Mon Aug  3 14:22:49 2020.
