 Gaussian 16, Revision B.01,
 Gaussian 16:  ES64L-G16RevB.01 20-Dec-2017

 ----------------------------------------------------------------------
 #p uwb97xd guess=mix def2tzvp # scrf=(iefpcm,solvent=Cyclohexane,read)
  nosym 6d 10f
 ----------------------------------------------------------------------

 -----------------------
 endo-2 xp-pcm for eta=3
 -----------------------
 Symbolic Z-matrix:
 Charge =  0 Multiplicity = 1

                          Input orientation:
 ---------------------------------------------------------------------
 Center     Atomic      Atomic             Coordinates (Angstroms)
 Number     Number       Type             X           Y           Z
 ---------------------------------------------------------------------
      1          6           0       -3.121693   -0.437935    0.248475
      2          6           0       -0.608894   -0.218266   -1.036985
      3          1           0       -4.085054   -0.548156    0.732789
      4          1           0        0.360308   -0.124712   -1.506593
      5          6           0        1.099596    1.410984    0.705395
      6          6           0        0.608894    0.218266    1.036985
      7          1           0        0.514105    2.311092    0.843328
      8          1           0       -0.360308    0.124712    1.506593
      9          6           0        1.483411   -1.000688    1.011498
     10          1           0        1.950917   -1.047718    2.003099
     11          1           0        0.891930   -1.909281    0.914020
     12          6           0        2.425900    1.517947    0.109041
     13          1           0        2.834101    2.505963   -0.067907
     14          6           0        3.121693    0.437935   -0.248475
     15          1           0        4.085054    0.548156   -0.732789
     16          6           0        2.590248   -0.954860   -0.045775
     17          1           0        2.235992   -1.344838   -1.008028
     18          1           0        3.400959   -1.621706    0.255233
     19          6           0       -1.099596   -1.410984   -0.705395
     20          1           0       -0.514105   -2.311092   -0.843328
     21          6           0       -2.425900   -1.517947   -0.109041
     22          1           0       -2.834101   -2.505963    0.067907
     23          6           0       -1.483411    1.000688   -1.011498
     24          1           0       -0.891929    1.909281   -0.914020
     25          1           0       -1.950917    1.047718   -2.003099
     26          6           0       -2.590248    0.954860    0.045775
     27          1           0       -3.400959    1.621706   -0.255234
     28          1           0       -2.235992    1.344838    1.008028
 ---------------------------------------------------------------------

 SCF Done:  E(UwB97XD) =  -466.841874101     A.U. after   18 cycles

 Alpha  occ. eigenvalues --  -10.28631 -10.28631 -10.28337 -10.28337 -10.28265
 Alpha  occ. eigenvalues --  -10.28265 -10.28216 -10.28215 -10.28018 -10.28018
 Alpha  occ. eigenvalues --  -10.27247 -10.27247  -0.94703  -0.93532  -0.84831
 Alpha  occ. eigenvalues --   -0.84421  -0.83702  -0.83523  -0.71747  -0.71033
 Alpha  occ. eigenvalues --   -0.68448  -0.67882  -0.59949  -0.59933  -0.57737
 Alpha  occ. eigenvalues --   -0.56468  -0.53698  -0.53058  -0.51114  -0.50946
 Alpha  occ. eigenvalues --   -0.49916  -0.49095  -0.47700  -0.46979  -0.45925
 Alpha  occ. eigenvalues --   -0.44885  -0.41548  -0.41029  -0.39971  -0.39261
 Alpha  occ. eigenvalues --   -0.39207  -0.38641  -0.30373  -0.26414
 Alpha virt. eigenvalues --    0.02249   0.06337   0.10494   0.12371   0.13451
 Alpha virt. eigenvalues --    0.14557   0.14859   0.15701   0.15785   0.16084
 Alpha virt. eigenvalues --    0.16552   0.17198   0.17441   0.18354   0.19946

  Beta  occ. eigenvalues --  -10.28631 -10.28631 -10.28337 -10.28337 -10.28265
  Beta  occ. eigenvalues --  -10.28265 -10.28216 -10.28215 -10.28018 -10.28018
  Beta  occ. eigenvalues --  -10.27247 -10.27247  -0.94703  -0.93532  -0.84831
  Beta  occ. eigenvalues --   -0.84421  -0.83702  -0.83523  -0.71747  -0.71033
  Beta  occ. eigenvalues --   -0.68448  -0.67882  -0.59949  -0.59933  -0.57737
  Beta  occ. eigenvalues --   -0.56468  -0.53698  -0.53058  -0.51114  -0.50946
  Beta  occ. eigenvalues --   -0.49916  -0.49095  -0.47700  -0.46979  -0.45925
  Beta  occ. eigenvalues --   -0.44885  -0.41548  -0.41029  -0.39971  -0.39261
  Beta  occ. eigenvalues --   -0.39207  -0.38641  -0.30373  -0.26414
  Beta virt. eigenvalues --    0.02249   0.06337   0.10494   0.12371   0.13451
  Beta virt. eigenvalues --    0.14557   0.14859   0.15701   0.15785   0.16084
  Beta virt. eigenvalues --    0.16552   0.17198   0.17441   0.18354   0.19946

 Mulliken charges and spin densities:
               1          2
     1  C   -0.209314  -0.000000
     2  C   -0.198864   0.000000
     3  H    0.141559  -0.000000
     4  H    0.173054   0.000000
     5  C   -0.148486   0.000000
     6  C   -0.198988   0.000000
     7  H    0.153172   0.000000
     8  H    0.173027  -0.000000
     9  C   -0.212303   0.000001
    10  H    0.120424  -0.000000
    11  H    0.143803  -0.000000
    12  C   -0.172085   0.000001
    13  H    0.144565  -0.000000
    14  C   -0.209401  -0.000000
    15  H    0.141562   0.000000
    16  C   -0.176991  -0.000000
    17  H    0.115109   0.000000
    18  H    0.126576   0.000000
    19  C   -0.148641  -0.000000
    20  H    0.153145  -0.000000
    21  C   -0.172182  -0.000000
    22  H    0.144596   0.000000
    23  C   -0.212267  -0.000001
    24  H    0.143849   0.000000
    25  H    0.120421   0.000000
    26  C   -0.177029   0.000001
    27  H    0.126589  -0.000000
    28  H    0.115099  -0.000000
 Sum of Mulliken charges =  -0.00000  -0.00000

 Dipole moment (field-independent basis, Debye):
    X=              0.0003    Y=             -0.0004    Z=             -0.0002  Tot=              0.0006
 Quadrupole moment (field-independent basis, Debye-Ang):
   XX=            -72.2790   YY=            -69.9125   ZZ=            -77.2161
   XY=             -3.3336   XZ=             -3.3069   YZ=             -1.5204

 Normal termination of Gaussian 16 at Mon Aug  3 15:37:34 2020.
