 Gaussian 16, Revision B.01,

 ----------------------------------------------------------------------
 #p uwb97xd guess=mix def2tzvp # scrf=(iefpcm,solvent=Cyclohexane,read)
  nosym 6d 10f
 ----------------------------------------------------------------------

 -----------------------
 endo-2 xp-pcm for eta=3
 -----------------------
 Symbolic Z-matrix:
 Charge =  0 Multiplicity = 1

 SCF Done:  E(UwB97XD) =  -466.842335417     A.U. after   18 cycles
 Normal termination of Gaussian 16 at Tue Aug  4 05:24:03 2020.

 ----------------------------------------------------------------------
 #p uwb97xd guess=mix def2tzvp # scrf=(iefpcm,solvent=Cyclohexane,read)
  nosym 6d 10f
 ----------------------------------------------------------------------

 -----------------------
 endo-2 xp-pcm for eta=3
 -----------------------
 Symbolic Z-matrix:
 Charge =  0 Multiplicity = 1

 SCF Done:  E(UwB97XD) =  -466.838972745     A.U. after   18 cycles
 Normal termination of Gaussian 16 at Tue Aug  4 05:29:44 2020.

 ----------------------------------------------------------------------
 #p uwb97xd guess=mix def2tzvp # scrf=(iefpcm,solvent=Cyclohexane,read)
  nosym 6d 10f
 ----------------------------------------------------------------------

 -----------------------
 endo-2 xp-pcm for eta=3
 -----------------------
 Symbolic Z-matrix:
 Charge =  0 Multiplicity = 1

 SCF Done:  E(UwB97XD) =  -466.834396259     A.U. after   18 cycles
 Normal termination of Gaussian 16 at Tue Aug  4 05:35:23 2020.

 ----------------------------------------------------------------------
 #p uwb97xd guess=mix def2tzvp # scrf=(iefpcm,solvent=Cyclohexane,read)
  nosym 6d 10f
 ----------------------------------------------------------------------

 -----------------------
 endo-2 xp-pcm for eta=3
 -----------------------
 Symbolic Z-matrix:
 Charge =  0 Multiplicity = 1

 SCF Done:  E(UwB97XD) =  -466.827893171     A.U. after   18 cycles
 Normal termination of Gaussian 16 at Tue Aug  4 05:41:03 2020.

 ----------------------------------------------------------------------
 #p uwb97xd guess=mix def2tzvp # scrf=(iefpcm,solvent=Cyclohexane,read)
  nosym 6d 10f
 ----------------------------------------------------------------------

 -----------------------
 endo-2 xp-pcm for eta=3
 -----------------------
 Symbolic Z-matrix:
 Charge =  0 Multiplicity = 1

 SCF Done:  E(UwB97XD) =  -466.816587220     A.U. after   18 cycles
 Normal termination of Gaussian 16 at Tue Aug  4 05:46:41 2020.

 ----------------------------------------------------------------------
 #p uwb97xd guess=mix def2tzvp # scrf=(iefpcm,solvent=Cyclohexane,read)
  nosym 6d 10f
 ----------------------------------------------------------------------

 -----------------------
 endo-2 xp-pcm for eta=3
 -----------------------
 Symbolic Z-matrix:
 Charge =  0 Multiplicity = 1

 SCF Done:  E(UwB97XD) =  -466.810077686     A.U. after   18 cycles
 Normal termination of Gaussian 16 at Tue Aug  4 05:52:21 2020.
 Gaussian 16:  ES64L-G16RevB.01 20-Dec-2017

                          Input orientation:
 ---------------------------------------------------------------------
 Center     Atomic      Atomic             Coordinates (Angstroms)
 Number     Number       Type             X           Y           Z
 ---------------------------------------------------------------------
      1          6           0       -3.126220   -0.440488    0.253489
      2          6           0       -0.672219   -0.236821   -1.146356
      3          1           0       -4.082957   -0.541745    0.752734
      4          1           0        0.294206   -0.146815   -1.625125
      5          6           0        1.129787    1.418428    0.743520
      6          6           0        0.672219    0.236821    1.146356
      7          1           0        0.536815    2.315578    0.872168
      8          1           0       -0.294206    0.146815    1.625125
      9          6           0        1.518650   -0.999998    1.059609
     10          1           0        2.012318   -1.114204    2.032991
     11          1           0        0.891136   -1.882004    0.937960
     12          6           0        2.439953    1.524706    0.104897
     13          1           0        2.843940    2.511426   -0.087900
     14          6           0        3.126220    0.440488   -0.253489
     15          1           0        4.082957    0.541745   -0.752734
     16          6           0        2.584411   -0.946808   -0.040911
     17          1           0        2.177912   -1.311853   -0.992206
     18          1           0        3.397883   -1.630946    0.208832
     19          6           0       -1.129787   -1.418428   -0.743520
     20          1           0       -0.536815   -2.315578   -0.872168
     21          6           0       -2.439953   -1.524706   -0.104897
     22          1           0       -2.843940   -2.511426    0.087900
     23          6           0       -1.518650    0.999998   -1.059609
     24          1           0       -0.891135    1.882004   -0.937960
     25          1           0       -2.012317    1.114205   -2.032991
     26          6           0       -2.584411    0.946808    0.040911
     27          1           0       -3.397883    1.630946   -0.208832
     28          1           0       -2.177912    1.311853    0.992206
 ---------------------------------------------------------------------

 SCF Done:  E(UwB97XD) =  -466.803221004     A.U. after   18 cycles

 Alpha  occ. eigenvalues --  -10.27365 -10.27362 -10.27078 -10.27074 -10.27044
 Alpha  occ. eigenvalues --  -10.27044 -10.27042 -10.27038 -10.26777 -10.26777
 Alpha  occ. eigenvalues --  -10.26266 -10.26264  -0.93339  -0.92505  -0.83484
 Alpha  occ. eigenvalues --   -0.83263  -0.82674  -0.82660  -0.70592  -0.70103
 Alpha  occ. eigenvalues --   -0.67144  -0.66903  -0.58805  -0.58678  -0.56473
 Alpha  occ. eigenvalues --   -0.55534  -0.52713  -0.51844  -0.49957  -0.49940
 Alpha  occ. eigenvalues --   -0.48821  -0.48194  -0.46439  -0.45807  -0.44473
 Alpha  occ. eigenvalues --   -0.43923  -0.40345  -0.39938  -0.38793  -0.38281
 Alpha  occ. eigenvalues --   -0.38162  -0.37850  -0.28970  -0.26141
 Alpha virt. eigenvalues --    0.04263   0.06696   0.13371   0.14945   0.16550
 Alpha virt. eigenvalues --    0.16870   0.17526   0.18204   0.18621   0.19044
 Alpha virt. eigenvalues --    0.19431   0.19482   0.20232   0.21254   0.22983

  Beta  occ. eigenvalues --  -10.27365 -10.27362 -10.27078 -10.27074 -10.27044
  Beta  occ. eigenvalues --  -10.27044 -10.27042 -10.27038 -10.26777 -10.26777
  Beta  occ. eigenvalues --  -10.26266 -10.26264  -0.93339  -0.92505  -0.83484
  Beta  occ. eigenvalues --   -0.83263  -0.82674  -0.82660  -0.70592  -0.70103
  Beta  occ. eigenvalues --   -0.67144  -0.66903  -0.58805  -0.58678  -0.56473
  Beta  occ. eigenvalues --   -0.55534  -0.52713  -0.51844  -0.49957  -0.49940
  Beta  occ. eigenvalues --   -0.48821  -0.48194  -0.46439  -0.45807  -0.44473
  Beta  occ. eigenvalues --   -0.43923  -0.40345  -0.39938  -0.38793  -0.38281
  Beta  occ. eigenvalues --   -0.38162  -0.37850  -0.28970  -0.26141
  Beta virt. eigenvalues --    0.04263   0.06696   0.13371   0.14945   0.16550
  Beta virt. eigenvalues --    0.16870   0.17526   0.18204   0.18621   0.19044
  Beta virt. eigenvalues --    0.19431   0.19482   0.20232   0.21254   0.22983

 Mulliken charges and spin densities:
               1          2
     1  C   -0.204287  -0.000000
     2  C   -0.203839  -0.000000
     3  H    0.148273   0.000000
     4  H    0.177114  -0.000000
     5  C   -0.180055   0.000000
     6  C   -0.204159  -0.000000
     7  H    0.166010   0.000000
     8  H    0.176008   0.000000
     9  C   -0.232730  -0.000001
    10  H    0.132292   0.000000
    11  H    0.150471   0.000000
    12  C   -0.162971  -0.000000
    13  H    0.150702  -0.000000
    14  C   -0.204237   0.000001
    15  H    0.148215  -0.000000
    16  C   -0.194067   0.000000
    17  H    0.121137  -0.000000
    18  H    0.133732  -0.000000
    19  C   -0.182185   0.000000
    20  H    0.165778  -0.000000
    21  C   -0.162403  -0.000000
    22  H    0.150284   0.000000
    23  C   -0.232769   0.000001
    24  H    0.149646  -0.000000
    25  H    0.132492  -0.000000
    26  C   -0.194738  -0.000000
    27  H    0.133658   0.000000
    28  H    0.122628   0.000000
 Sum of Mulliken charges =  -0.00000   0.00000

 Dipole moment (field-independent basis, Debye):
    X=             -0.0015    Y=             -0.0028    Z=              0.0031  Tot=              0.0044
 Quadrupole moment (field-independent basis, Debye-Ang):
   XX=            -70.1400   YY=            -68.1657   ZZ=            -75.6258
   XY=             -3.4019   XZ=             -3.5305   YZ=             -1.6904

 Normal termination of Gaussian 16 at Tue Aug  4 05:58:00 2020.
