 Gaussian 16, Revision B.01,

 ----------------------------------------------------------------------
 #p uwb97xd guess=mix def2tzvp # scrf=(iefpcm,solvent=Cyclohexane,read)
  nosym 6d 10f
 ----------------------------------------------------------------------

 -----------------------
 endo-2 xp-pcm for eta=3
 -----------------------
 Symbolic Z-matrix:
 Charge =  0 Multiplicity = 1

 SCF Done:  E(UwB97XD) =  -466.827622305     A.U. after   15 cycles
 Normal termination of Gaussian 16 at Tue Aug  4 19:22:00 2020.

 ----------------------------------------------------------------------
 #p uwb97xd guess=mix def2tzvp # scrf=(iefpcm,solvent=Cyclohexane,read)
  nosym 6d 10f
 ----------------------------------------------------------------------

 -----------------------
 endo-2 xp-pcm for eta=3
 -----------------------
 Symbolic Z-matrix:
 Charge =  0 Multiplicity = 1

 SCF Done:  E(UwB97XD) =  -466.823389402     A.U. after   15 cycles
 Normal termination of Gaussian 16 at Tue Aug  4 19:26:56 2020.

 ----------------------------------------------------------------------
 #p uwb97xd guess=mix def2tzvp # scrf=(iefpcm,solvent=Cyclohexane,read)
  nosym 6d 10f
 ----------------------------------------------------------------------

 -----------------------
 endo-2 xp-pcm for eta=3
 -----------------------
 Symbolic Z-matrix:
 Charge =  0 Multiplicity = 1

 SCF Done:  E(UwB97XD) =  -466.819074457     A.U. after   15 cycles
 Normal termination of Gaussian 16 at Tue Aug  4 19:31:48 2020.

 ----------------------------------------------------------------------
 #p uwb97xd guess=mix def2tzvp # scrf=(iefpcm,solvent=Cyclohexane,read)
  nosym 6d 10f
 ----------------------------------------------------------------------

 -----------------------
 endo-2 xp-pcm for eta=3
 -----------------------
 Symbolic Z-matrix:
 Charge =  0 Multiplicity = 1

 SCF Done:  E(UwB97XD) =  -466.811990820     A.U. after   14 cycles
 Normal termination of Gaussian 16 at Tue Aug  4 19:36:23 2020.

 ----------------------------------------------------------------------
 #p uwb97xd guess=mix def2tzvp # scrf=(iefpcm,solvent=Cyclohexane,read)
  nosym 6d 10f
 ----------------------------------------------------------------------

 -----------------------
 endo-2 xp-pcm for eta=3
 -----------------------
 Symbolic Z-matrix:
 Charge =  0 Multiplicity = 1

 SCF Done:  E(UwB97XD) =  -466.802679416     A.U. after   14 cycles
 Normal termination of Gaussian 16 at Tue Aug  4 19:40:59 2020.

 ----------------------------------------------------------------------
 #p uwb97xd guess=mix def2tzvp # scrf=(iefpcm,solvent=Cyclohexane,read)
  nosym 6d 10f
 ----------------------------------------------------------------------

 -----------------------
 endo-2 xp-pcm for eta=3
 -----------------------
 Symbolic Z-matrix:
 Charge =  0 Multiplicity = 1

 SCF Done:  E(UwB97XD) =  -466.797938039     A.U. after   14 cycles
 Normal termination of Gaussian 16 at Tue Aug  4 19:45:35 2020.
 Gaussian 16:  ES64L-G16RevB.01 20-Dec-2017

                          Input orientation:
 ---------------------------------------------------------------------
 Center     Atomic      Atomic             Coordinates (Angstroms)
 Number     Number       Type             X           Y           Z
 ---------------------------------------------------------------------
      1          6           0       -3.118545   -0.423500    0.248223
      2          6           0       -0.402344   -0.116575   -0.672864
      3          1           0       -4.093571   -0.546048    0.703566
      4          1           0        0.333633   -0.108030   -1.481168
      5          6           0        1.107682    1.434119    0.643785
      6          6           0        0.402344    0.116575    0.672864
      7          1           0        0.575901    2.330463    0.937322
      8          1           0       -0.333633    0.108030    1.481168
      9          6           0        1.433587   -0.989852    0.953879
     10          1           0        1.831677   -0.829046    1.959162
     11          1           0        0.953866   -1.970051    0.954345
     12          6           0        2.392223    1.530795    0.133818
     13          1           0        2.840546    2.512465    0.025049
     14          6           0        3.118545    0.423500   -0.248223
     15          1           0        4.093571    0.546048   -0.703566
     16          6           0        2.590666   -0.961461   -0.045609
     17          1           0        2.263468   -1.371998   -1.010466
     18          1           0        3.394447   -1.622447    0.290265
     19          6           0       -1.107682   -1.434119   -0.643785
     20          1           0       -0.575901   -2.330463   -0.937322
     21          6           0       -2.392223   -1.530795   -0.133818
     22          1           0       -2.840546   -2.512465   -0.025049
     23          6           0       -1.433587    0.989852   -0.953879
     24          1           0       -0.953866    1.970051   -0.954345
     25          1           0       -1.831677    0.829046   -1.959162
     26          6           0       -2.590666    0.961461    0.045609
     27          1           0       -3.394447    1.622447   -0.290265
     28          1           0       -2.263468    1.371998    1.010466
 ---------------------------------------------------------------------

 SCF Done:  E(UwB97XD) =  -466.789904151     A.U. after   14 cycles

 Alpha  occ. eigenvalues --  -10.28032 -10.27908 -10.27632 -10.27389 -10.27206
 Alpha  occ. eigenvalues --  -10.27156 -10.26995 -10.26912 -10.26677 -10.26660
 Alpha  occ. eigenvalues --  -10.26648 -10.26629  -0.94451  -0.91650  -0.84926
 Alpha  occ. eigenvalues --   -0.83533  -0.82518  -0.79964  -0.70461  -0.69651
 Alpha  occ. eigenvalues --   -0.68147  -0.66506  -0.59125  -0.58295  -0.57664
 Alpha  occ. eigenvalues --   -0.55165  -0.52609  -0.51572  -0.49875  -0.47993
 Alpha  occ. eigenvalues --   -0.47912  -0.47562  -0.47161  -0.46278  -0.44879
 Alpha  occ. eigenvalues --   -0.43662  -0.40379  -0.39852  -0.39003  -0.37850
 Alpha  occ. eigenvalues --   -0.36638  -0.36314  -0.33698  -0.24246
 Alpha virt. eigenvalues --    0.01370   0.11939   0.13495   0.15289   0.15555
 Alpha virt. eigenvalues --    0.16684   0.17743   0.18432   0.19153   0.19428
 Alpha virt. eigenvalues --    0.19944   0.20314   0.21488   0.23014   0.23056

  Beta  occ. eigenvalues --  -10.28035 -10.27906 -10.27633 -10.27390 -10.27204
  Beta  occ. eigenvalues --  -10.27159 -10.26993 -10.26912 -10.26678 -10.26659
  Beta  occ. eigenvalues --  -10.26648 -10.26629  -0.94451  -0.91650  -0.84926
  Beta  occ. eigenvalues --   -0.83533  -0.82518  -0.79964  -0.70461  -0.69651
  Beta  occ. eigenvalues --   -0.68146  -0.66506  -0.59125  -0.58295  -0.57664
  Beta  occ. eigenvalues --   -0.55164  -0.52609  -0.51572  -0.49875  -0.47993
  Beta  occ. eigenvalues --   -0.47912  -0.47562  -0.47161  -0.46277  -0.44879
  Beta  occ. eigenvalues --   -0.43662  -0.40378  -0.39852  -0.39003  -0.37850
  Beta  occ. eigenvalues --   -0.36638  -0.36314  -0.33698  -0.24247
  Beta virt. eigenvalues --    0.01372   0.11938   0.13497   0.15290   0.15555
  Beta virt. eigenvalues --    0.16683   0.17743   0.18432   0.19152   0.19427
  Beta virt. eigenvalues --    0.19947   0.20312   0.21487   0.23015   0.23056

 Mulliken charges and spin densities:
               1          2
     1  C   -0.192383  -0.594255
     2  C   -0.148272   0.054371
     3  H    0.150419   0.024373
     4  H    0.154719  -0.008474
     5  C   -0.217972   0.617178
     6  C   -0.150222  -0.054326
     7  H    0.170032  -0.025067
     8  H    0.154428   0.008471
     9  C   -0.254855   0.010116
    10  H    0.134664  -0.000107
    11  H    0.149244   0.000125
    12  C   -0.157215  -0.223772
    13  H    0.147598   0.009311
    14  C   -0.192128   0.594205
    15  H    0.150425  -0.024369
    16  C   -0.195688  -0.035793
    17  H    0.125505   0.033560
    18  H    0.135940   0.014692
    19  C   -0.219249  -0.617180
    20  H    0.170378   0.025050
    21  C   -0.156892   0.223796
    22  H    0.147544  -0.009311
    23  C   -0.254790  -0.010088
    24  H    0.149517  -0.000130
    25  H    0.134187   0.000106
    26  C   -0.196509   0.035796
    27  H    0.136054  -0.014696
    28  H    0.125518  -0.033579
 Sum of Mulliken charges =  -0.00000  -0.00000

 Dipole moment (field-independent basis, Debye):
    X=              0.0001    Y=             -0.0014    Z=             -0.0023  Tot=              0.0026
 Quadrupole moment (field-independent basis, Debye-Ang):
   XX=            -69.7369   YY=            -69.5738   ZZ=            -74.8701
   XY=             -2.3955   XZ=             -2.7213   YZ=              0.0925

 Normal termination of Gaussian 16 at Tue Aug  4 19:50:09 2020.
