 Gaussian 16, Revision B.01,
 Gaussian 16:  ES64L-G16RevB.01 20-Dec-2017

 ----------------------------------------------------------------------
 #p uwb97xd guess=mix def2tzvp # scrf=(iefpcm,solvent=Cyclohexane,read)
  nosym 6d 10f
 ----------------------------------------------------------------------

 -----------------------
 endo-2 xp-pcm for eta=3
 -----------------------
 Symbolic Z-matrix:
 Charge =  0 Multiplicity = 1

                          Input orientation:
 ---------------------------------------------------------------------
 Center     Atomic      Atomic             Coordinates (Angstroms)
 Number     Number       Type             X           Y           Z
 ---------------------------------------------------------------------
      1          6           0       -3.127681   -0.441423    0.258958
      2          6           0       -0.708381   -0.245534   -1.202422
      3          1           0       -4.076548   -0.536846    0.774111
      4          1           0        0.248962   -0.160472   -1.700991
      5          6           0        1.152306    1.422704    0.772430
      6          6           0        0.708381    0.245534    1.202422
      7          1           0        0.558988    2.319273    0.905524
      8          1           0       -0.248962    0.160472    1.700991
      9          6           0        1.545018   -0.996200    1.092829
     10          1           0        2.059657   -1.126856    2.053246
     11          1           0        0.904290   -1.869997    0.974198
     12          6           0        2.450083    1.528310    0.106435
     13          1           0        2.850945    2.514335   -0.096069
     14          6           0        3.127681    0.441423   -0.258958
     15          1           0        4.076548    0.536846   -0.774111
     16          6           0        2.579330   -0.941931   -0.037180
     17          1           0        2.135763   -1.291670   -0.977567
     18          1           0        3.392662   -1.637636    0.178291
     19          6           0       -1.152306   -1.422704   -0.772430
     20          1           0       -0.558988   -2.319273   -0.905524
     21          6           0       -2.450083   -1.528310   -0.106435
     22          1           0       -2.850945   -2.514335    0.096069
     23          6           0       -1.545018    0.996200   -1.092829
     24          1           0       -0.904290    1.869997   -0.974198
     25          1           0       -2.059657    1.126856   -2.053246
     26          6           0       -2.579330    0.941931    0.037180
     27          1           0       -3.392662    1.637636   -0.178291
     28          1           0       -2.135763    1.291670    0.977567
 ---------------------------------------------------------------------

 SCF Done:  E(UwB97XD) =  -466.855282570     A.U. after   18 cycles

 Alpha  occ. eigenvalues --  -10.28569 -10.28568 -10.28301 -10.28300 -10.28290
 Alpha  occ. eigenvalues --  -10.28289 -10.28212 -10.28211 -10.28019 -10.28019
 Alpha  occ. eigenvalues --  -10.27542 -10.27541  -0.94296  -0.93610  -0.84412
 Alpha  occ. eigenvalues --   -0.84266  -0.83814  -0.83737  -0.71569  -0.71214
 Alpha  occ. eigenvalues --   -0.68104  -0.67965  -0.59839  -0.59695  -0.57459
 Alpha  occ. eigenvalues --   -0.56656  -0.53745  -0.52865  -0.51031  -0.51009
 Alpha  occ. eigenvalues --   -0.49927  -0.49387  -0.47482  -0.46933  -0.45390
 Alpha  occ. eigenvalues --   -0.45069  -0.41394  -0.41047  -0.39834  -0.39335
 Alpha  occ. eigenvalues --   -0.39264  -0.38970  -0.29918  -0.27455
 Alpha virt. eigenvalues --    0.03277   0.05148   0.10518   0.12296   0.13372
 Alpha virt. eigenvalues --    0.14504   0.14872   0.15686   0.15704   0.15849
 Alpha virt. eigenvalues --    0.16730   0.16925   0.17222   0.18211   0.19966

  Beta  occ. eigenvalues --  -10.28569 -10.28568 -10.28301 -10.28300 -10.28290
  Beta  occ. eigenvalues --  -10.28289 -10.28212 -10.28211 -10.28019 -10.28019
  Beta  occ. eigenvalues --  -10.27542 -10.27541  -0.94296  -0.93610  -0.84412
  Beta  occ. eigenvalues --   -0.84266  -0.83814  -0.83737  -0.71569  -0.71214
  Beta  occ. eigenvalues --   -0.68104  -0.67965  -0.59839  -0.59695  -0.57459
  Beta  occ. eigenvalues --   -0.56656  -0.53745  -0.52865  -0.51031  -0.51009
  Beta  occ. eigenvalues --   -0.49927  -0.49387  -0.47482  -0.46933  -0.45390
  Beta  occ. eigenvalues --   -0.45069  -0.41394  -0.41047  -0.39834  -0.39335
  Beta  occ. eigenvalues --   -0.39264  -0.38970  -0.29918  -0.27455
  Beta virt. eigenvalues --    0.03277   0.05148   0.10518   0.12296   0.13372
  Beta virt. eigenvalues --    0.14504   0.14872   0.15686   0.15704   0.15849
  Beta virt. eigenvalues --    0.16730   0.16925   0.17222   0.18211   0.19966

 Mulliken charges and spin densities:
               1          2
     1  C   -0.209517   0.000001
     2  C   -0.186571  -0.000000
     3  H    0.141832  -0.000000
     4  H    0.163043   0.000000
     5  C   -0.165917   0.000000
     6  C   -0.186227  -0.000000
     7  H    0.154342  -0.000000
     8  H    0.162924  -0.000000
     9  C   -0.205132   0.000001
    10  H    0.119056  -0.000000
    11  H    0.138236  -0.000000
    12  C   -0.158829  -0.000000
    13  H    0.145382   0.000000
    14  C   -0.209434  -0.000000
    15  H    0.141829   0.000000
    16  C   -0.173694  -0.000000
    17  H    0.111697   0.000000
    18  H    0.125756   0.000000
    19  C   -0.165741   0.000000
    20  H    0.154417   0.000000
    21  C   -0.158637  -0.000000
    22  H    0.145348  -0.000000
    23  C   -0.205201  -0.000001
    24  H    0.138302   0.000000
    25  H    0.119022   0.000000
    26  C   -0.173761   0.000000
    27  H    0.125776  -0.000000
    28  H    0.111699  -0.000000
 Sum of Mulliken charges =  -0.00000   0.00000

 Dipole moment (field-independent basis, Debye):
    X=              0.0001    Y=              0.0001    Z=             -0.0000  Tot=              0.0001
 Quadrupole moment (field-independent basis, Debye-Ang):
   XX=            -72.3304   YY=            -69.8217   ZZ=            -77.0220
   XY=             -3.3142   XZ=             -3.6723   YZ=             -1.7151

 Normal termination of Gaussian 16 at Mon Aug  3 14:54:22 2020.
