 Gaussian 16, Revision B.01,
 Gaussian 16:  ES64L-G16RevB.01 20-Dec-2017

 ----------------------------------------------------------------------
 #p uwb97xd guess=mix def2tzvp # scrf=(iefpcm,solvent=Cyclohexane,read)
  nosym 6d 10f
 ----------------------------------------------------------------------

 -----------------------
 endo-2 xp-pcm for eta=3
 -----------------------
 Symbolic Z-matrix:
 Charge =  0 Multiplicity = 1

                          Input orientation:
 ---------------------------------------------------------------------
 Center     Atomic      Atomic             Coordinates (Angstroms)
 Number     Number       Type             X           Y           Z
 ---------------------------------------------------------------------
      1          6           0       -3.119292   -0.437085    0.247292
      2          6           0       -0.569370   -0.202476   -0.959340
      3          1           0       -4.083426   -0.549760    0.729383
      4          1           0        0.380387   -0.117904   -1.468298
      5          6           0        1.091078    1.405545    0.692127
      6          6           0        0.569370    0.202476    0.959340
      7          1           0        0.517151    2.308513    0.856707
      8          1           0       -0.380387    0.117904    1.468298
      9          6           0        1.469648   -0.999582    0.993300
     10          1           0        1.920562   -0.988028    1.993185
     11          1           0        0.906483   -1.928611    0.921226
     12          6           0        2.419739    1.515988    0.111913
     13          1           0        2.828521    2.505149   -0.057522
     14          6           0        3.119292    0.437085   -0.247292
     15          1           0        4.083426    0.549760   -0.729383
     16          6           0        2.591527   -0.957486   -0.045320
     17          1           0        2.251568   -1.354671   -1.009800
     18          1           0        3.400483   -1.619871    0.270232
     19          6           0       -1.091078   -1.405545   -0.692127
     20          1           0       -0.517151   -2.308513   -0.856707
     21          6           0       -2.419738   -1.515988   -0.111913
     22          1           0       -2.828521   -2.505149    0.057522
     23          6           0       -1.469648    0.999582   -0.993300
     24          1           0       -0.906482    1.928611   -0.921226
     25          1           0       -1.920562    0.988028   -1.993185
     26          6           0       -2.591527    0.957486    0.045320
     27          1           0       -3.400483    1.619871   -0.270232
     28          1           0       -2.251568    1.354671    1.009800
 ---------------------------------------------------------------------

 SCF Done:  E(UwB97XD) =  -466.831953726     A.U. after   19 cycles

 Alpha  occ. eigenvalues --  -10.28621 -10.28621 -10.28585 -10.28584 -10.28260
 Alpha  occ. eigenvalues --  -10.28260 -10.28206 -10.28206 -10.28012 -10.28012
 Alpha  occ. eigenvalues --  -10.27182 -10.27181  -0.94939  -0.93510  -0.85054
 Alpha  occ. eigenvalues --   -0.84443  -0.83679  -0.83344  -0.71718  -0.70886
 Alpha  occ. eigenvalues --   -0.68713  -0.67838  -0.60087  -0.59932  -0.57931
 Alpha  occ. eigenvalues --   -0.56386  -0.53537  -0.53166  -0.51146  -0.50785
 Alpha  occ. eigenvalues --   -0.49896  -0.48936  -0.47769  -0.47087  -0.46199
 Alpha  occ. eigenvalues --   -0.44799  -0.41596  -0.41055  -0.39962  -0.39339
 Alpha  occ. eigenvalues --   -0.39138  -0.38361  -0.30841  -0.25512
 Alpha virt. eigenvalues --    0.01281   0.07165   0.10459   0.12405   0.13408
 Alpha virt. eigenvalues --    0.14516   0.14744   0.15573   0.15856   0.16271
 Alpha virt. eigenvalues --    0.16463   0.17417   0.17630   0.18619   0.19916

  Beta  occ. eigenvalues --  -10.28621 -10.28621 -10.28585 -10.28584 -10.28260
  Beta  occ. eigenvalues --  -10.28260 -10.28206 -10.28206 -10.28012 -10.28012
  Beta  occ. eigenvalues --  -10.27182 -10.27181  -0.94939  -0.93510  -0.85054
  Beta  occ. eigenvalues --   -0.84443  -0.83679  -0.83344  -0.71718  -0.70886
  Beta  occ. eigenvalues --   -0.68713  -0.67838  -0.60087  -0.59932  -0.57931
  Beta  occ. eigenvalues --   -0.56386  -0.53537  -0.53166  -0.51146  -0.50785
  Beta  occ. eigenvalues --   -0.49896  -0.48936  -0.47769  -0.47087  -0.46199
  Beta  occ. eigenvalues --   -0.44799  -0.41596  -0.41055  -0.39962  -0.39339
  Beta  occ. eigenvalues --   -0.39138  -0.38361  -0.30841  -0.25512
  Beta virt. eigenvalues --    0.01281   0.07165   0.10459   0.12405   0.13408
  Beta virt. eigenvalues --    0.14516   0.14744   0.15573   0.15856   0.16271
  Beta virt. eigenvalues --    0.16463   0.17417   0.17630   0.18619   0.19916

 Mulliken charges and spin densities:
               1          2
     1  C   -0.209540  -0.000003
     2  C   -0.202190  -0.000001
     3  H    0.141785   0.000000
     4  H    0.173951   0.000000
     5  C   -0.143074  -0.000000
     6  C   -0.202254   0.000001
     7  H    0.152080   0.000000
     8  H    0.173928  -0.000000
     9  C   -0.205987  -0.000000
    10  H    0.120955   0.000000
    11  H    0.143673   0.000000
    12  C   -0.177993  -0.000003
    13  H    0.144554  -0.000000
    14  C   -0.209664   0.000003
    15  H    0.141784  -0.000000
    16  C   -0.181643  -0.000000
    17  H    0.116307   0.000000
    18  H    0.127326   0.000000
    19  C   -0.143232   0.000001
    20  H    0.152166  -0.000000
    21  C   -0.178131   0.000003
    22  H    0.144581   0.000000
    23  C   -0.205974   0.000000
    24  H    0.143680  -0.000000
    25  H    0.120947  -0.000000
    26  C   -0.181705   0.000000
    27  H    0.127338  -0.000000
    28  H    0.116330  -0.000000
 Sum of Mulliken charges =  -0.00000  -0.00000

 Dipole moment (field-independent basis, Debye):
    X=              0.0002    Y=             -0.0010    Z=             -0.0003  Tot=              0.0010
 Quadrupole moment (field-independent basis, Debye-Ang):
   XX=            -72.4284   YY=            -70.0327   ZZ=            -77.0532
   XY=             -3.2748   XZ=             -3.2010   YZ=             -1.3131

 Normal termination of Gaussian 16 at Mon Aug  3 15:54:34 2020.
