 Gaussian 16, Revision B.01,

 ----------------------------------------------------------------------
 #p uwb97xd guess=mix def2tzvp # scrf=(iefpcm,solvent=Cyclohexane,read)
  nosym 6d 10f
 ----------------------------------------------------------------------

 -----------------------
 endo-2 xp-pcm for eta=3
 -----------------------
 Symbolic Z-matrix:
 Charge =  0 Multiplicity = 1

 SCF Done:  E(UwB97XD) =  -466.851225842     A.U. after   17 cycles
 Normal termination of Gaussian 16 at Mon Aug  3 18:34:56 2020.

 ----------------------------------------------------------------------
 #p uwb97xd guess=mix def2tzvp # scrf=(iefpcm,solvent=Cyclohexane,read)
  nosym 6d 10f
 ----------------------------------------------------------------------

 -----------------------
 endo-2 xp-pcm for eta=3
 -----------------------
 Symbolic Z-matrix:
 Charge =  0 Multiplicity = 1

 SCF Done:  E(UwB97XD) =  -466.847898642     A.U. after   17 cycles
 Normal termination of Gaussian 16 at Mon Aug  3 18:40:21 2020.

 ----------------------------------------------------------------------
 #p uwb97xd guess=mix def2tzvp # scrf=(iefpcm,solvent=Cyclohexane,read)
  nosym 6d 10f
 ----------------------------------------------------------------------

 -----------------------
 endo-2 xp-pcm for eta=3
 -----------------------
 Symbolic Z-matrix:
 Charge =  0 Multiplicity = 1

 SCF Done:  E(UwB97XD) =  -466.843046895     A.U. after   17 cycles
 Normal termination of Gaussian 16 at Mon Aug  3 18:45:36 2020.

 ----------------------------------------------------------------------
 #p uwb97xd guess=mix def2tzvp # scrf=(iefpcm,solvent=Cyclohexane,read)
  nosym 6d 10f
 ----------------------------------------------------------------------

 -----------------------
 endo-2 xp-pcm for eta=3
 -----------------------
 Symbolic Z-matrix:
 Charge =  0 Multiplicity = 1

 SCF Done:  E(UwB97XD) =  -466.836515864     A.U. after   17 cycles
 Normal termination of Gaussian 16 at Mon Aug  3 18:50:49 2020.

 ----------------------------------------------------------------------
 #p uwb97xd guess=mix def2tzvp # scrf=(iefpcm,solvent=Cyclohexane,read)
  nosym 6d 10f
 ----------------------------------------------------------------------

 -----------------------
 endo-2 xp-pcm for eta=3
 -----------------------
 Symbolic Z-matrix:
 Charge =  0 Multiplicity = 1

 SCF Done:  E(UwB97XD) =  -466.825524352     A.U. after   17 cycles
 Normal termination of Gaussian 16 at Mon Aug  3 18:56:04 2020.

 ----------------------------------------------------------------------
 #p uwb97xd guess=mix def2tzvp # scrf=(iefpcm,solvent=Cyclohexane,read)
  nosym 6d 10f
 ----------------------------------------------------------------------

 -----------------------
 endo-2 xp-pcm for eta=3
 -----------------------
 Symbolic Z-matrix:
 Charge =  0 Multiplicity = 1

 SCF Done:  E(UwB97XD) =  -466.819005166     A.U. after   17 cycles
 Normal termination of Gaussian 16 at Mon Aug  3 19:01:24 2020.
 Gaussian 16:  ES64L-G16RevB.01 20-Dec-2017

                          Input orientation:
 ---------------------------------------------------------------------
 Center     Atomic      Atomic             Coordinates (Angstroms)
 Number     Number       Type             X           Y           Z
 ---------------------------------------------------------------------
      1          6           0       -3.100740   -0.436725    0.295815
      2          6           0       -0.857979   -0.286324   -1.428905
      3          1           0       -3.998989   -0.507198    0.898194
      4          1           0        0.044923   -0.220426   -2.024218
      5          6           0        1.256794    1.450448    0.922302
      6          6           0        0.857979    0.286324    1.428905
      7          1           0        0.679926    2.352386    1.089821
      8          1           0       -0.044923    0.220426    2.024218
      9          6           0        1.678016   -0.959021    1.247210
     10          1           0        2.333558   -1.064055    2.121932
     11          1           0        1.030749   -1.837588    1.242211
     12          6           0        2.491654    1.537925    0.140607
     13          1           0        2.894748    2.517041   -0.088961
     14          6           0        3.100740    0.436725   -0.295815
     15          1           0        3.998989    0.507198   -0.898194
     16          6           0        2.520053   -0.925099   -0.029697
     17          1           0        1.898127   -1.206584   -0.888225
     18          1           0        3.312455   -1.673451    0.027707
     19          6           0       -1.256794   -1.450448   -0.922302
     20          1           0       -0.679926   -2.352386   -1.089821
     21          6           0       -2.491654   -1.537925   -0.140607
     22          1           0       -2.894748   -2.517041    0.088961
     23          6           0       -1.678016    0.959021   -1.247210
     24          1           0       -1.030749    1.837588   -1.242211
     25          1           0       -2.333558    1.064055   -2.121932
     26          6           0       -2.520053    0.925099    0.029697
     27          1           0       -3.312455    1.673451   -0.027707
     28          1           0       -1.898127    1.206584    0.888225
 ---------------------------------------------------------------------

 SCF Done:  E(UwB97XD) =  -466.812900302     A.U. after   17 cycles

 Alpha  occ. eigenvalues --  -10.27204 -10.27201 -10.27136 -10.27131 -10.27099
 Alpha  occ. eigenvalues --  -10.27098 -10.27097 -10.27096 -10.26803 -10.26800
 Alpha  occ. eigenvalues --  -10.26624 -10.26623  -0.93103  -0.92786  -0.83075
 Alpha  occ. eigenvalues --   -0.83067  -0.82933  -0.82721  -0.70245  -0.70198
 Alpha  occ. eigenvalues --   -0.66948  -0.66912  -0.58728  -0.58598  -0.56476
 Alpha  occ. eigenvalues --   -0.56006  -0.52311  -0.51654  -0.49866  -0.49806
 Alpha  occ. eigenvalues --   -0.48956  -0.48557  -0.46210  -0.45995  -0.44148
 Alpha  occ. eigenvalues --   -0.43890  -0.40144  -0.40038  -0.38553  -0.38234
 Alpha  occ. eigenvalues --   -0.38229  -0.38175  -0.28770  -0.26993
 Alpha virt. eigenvalues --    0.05163   0.05600   0.13271   0.14435   0.16300
 Alpha virt. eigenvalues --    0.16629   0.17087   0.18063   0.18245   0.18912
 Alpha virt. eigenvalues --    0.19742   0.19768   0.20113   0.21241   0.22954

  Beta  occ. eigenvalues --  -10.27204 -10.27201 -10.27136 -10.27131 -10.27099
  Beta  occ. eigenvalues --  -10.27098 -10.27097 -10.27096 -10.26803 -10.26800
  Beta  occ. eigenvalues --  -10.26624 -10.26623  -0.93103  -0.92786  -0.83075
  Beta  occ. eigenvalues --   -0.83067  -0.82933  -0.82721  -0.70245  -0.70198
  Beta  occ. eigenvalues --   -0.66948  -0.66912  -0.58728  -0.58598  -0.56476
  Beta  occ. eigenvalues --   -0.56006  -0.52311  -0.51654  -0.49866  -0.49806
  Beta  occ. eigenvalues --   -0.48956  -0.48557  -0.46210  -0.45995  -0.44148
  Beta  occ. eigenvalues --   -0.43890  -0.40144  -0.40038  -0.38553  -0.38234
  Beta  occ. eigenvalues --   -0.38229  -0.38175  -0.28770  -0.26993
  Beta virt. eigenvalues --    0.05163   0.05600   0.13271   0.14435   0.16300
  Beta virt. eigenvalues --    0.16629   0.17087   0.18063   0.18245   0.18912
  Beta virt. eigenvalues --    0.19742   0.19768   0.20113   0.21241   0.22954

 Mulliken charges and spin densities:
               1          2
     1  C   -0.205316  -0.000001
     2  C   -0.202001   0.000001
     3  H    0.148867   0.000000
     4  H    0.169901   0.000000
     5  C   -0.187872  -0.000001
     6  C   -0.203261   0.000001
     7  H    0.166447   0.000000
     8  H    0.169947  -0.000000
     9  C   -0.199045  -0.000001
    10  H    0.130271   0.000000
    11  H    0.136921   0.000000
    12  C   -0.166735   0.000000
    13  H    0.152356  -0.000000
    14  C   -0.203663  -0.000000
    15  H    0.148803   0.000000
    16  C   -0.188100   0.000000
    17  H    0.111460  -0.000000
    18  H    0.132570  -0.000000
    19  C   -0.188433  -0.000000
    20  H    0.166295  -0.000000
    21  C   -0.165047   0.000000
    22  H    0.152279   0.000000
    23  C   -0.198867   0.000001
    24  H    0.135621  -0.000000
    25  H    0.130270  -0.000000
    26  C   -0.186514  -0.000000
    27  H    0.132350   0.000000
    28  H    0.110497  -0.000000
 Sum of Mulliken charges =  -0.00000   0.00000

 Dipole moment (field-independent basis, Debye):
    X=             -0.0029    Y=             -0.0037    Z=             -0.0024  Tot=              0.0053
 Quadrupole moment (field-independent basis, Debye-Ang):
   XX=            -70.8820   YY=            -68.0219   ZZ=            -74.5386
   XY=             -3.1967   XZ=             -4.1162   YZ=             -1.6367

 Normal termination of Gaussian 16 at Mon Aug  3 19:06:41 2020.
