 Gaussian 16, Revision B.01,
 Gaussian 16:  ES64L-G16RevB.01 20-Dec-2017

 ----------------------------------------------------------------------
 #p uwb97xd guess=mix def2tzvp # scrf=(iefpcm,solvent=Cyclohexane,read)
  nosym 6d 10f
 ----------------------------------------------------------------------

 -----------------------
 endo-2 xp-pcm for eta=3
 -----------------------
 Symbolic Z-matrix:
 Charge =  0 Multiplicity = 1

                          Input orientation:
 ---------------------------------------------------------------------
 Center     Atomic      Atomic             Coordinates (Angstroms)
 Number     Number       Type             X           Y           Z
 ---------------------------------------------------------------------
      1          6           0       -3.119734   -0.426930    0.248214
      2          6           0       -0.452630   -0.134377   -0.766522
      3          1           0       -4.086028   -0.547352    0.722629
      4          1           0        0.332703   -0.111776   -1.521768
      5          6           0        1.115166    1.430657    0.672626
      6          6           0        0.452630    0.134377    0.766522
      7          1           0        0.561998    2.331699    0.905522
      8          1           0       -0.332703    0.111776    1.521768
      9          6           0        1.457223   -0.998723    0.982555
     10          1           0        1.882127   -0.904241    1.986471
     11          1           0        0.944658   -1.961243    0.946268
     12          6           0        2.397689    1.528359    0.123394
     13          1           0        2.825979    2.512496   -0.031045
     14          6           0        3.119734    0.426930   -0.248214
     15          1           0        4.086028    0.547352   -0.722629
     16          6           0        2.592798   -0.959299   -0.042549
     17          1           0        2.246207   -1.358828   -1.004791
     18          1           0        3.401603   -1.624548    0.271052
     19          6           0       -1.115166   -1.430657   -0.672626
     20          1           0       -0.561998   -2.331699   -0.905522
     21          6           0       -2.397689   -1.528359   -0.123394
     22          1           0       -2.825979   -2.512496    0.031045
     23          6           0       -1.457223    0.998723   -0.982556
     24          1           0       -0.944658    1.961243   -0.946268
     25          1           0       -1.882127    0.904241   -1.986471
     26          6           0       -2.592798    0.959299    0.042549
     27          1           0       -3.401603    1.624548   -0.271052
     28          1           0       -2.246207    1.358828    1.004791
 ---------------------------------------------------------------------

 SCF Done:  E(UwB97XD) =  -466.825404801     A.U. after   16 cycles

 Alpha  occ. eigenvalues --  -10.29927 -10.29708 -10.28784 -10.28522 -10.28462
 Alpha  occ. eigenvalues --  -10.28418 -10.28202 -10.28127 -10.27998 -10.27975
 Alpha  occ. eigenvalues --  -10.27887 -10.27806  -0.94974  -0.92879  -0.85214
 Alpha  occ. eigenvalues --   -0.84522  -0.83618  -0.81648  -0.71076  -0.70272
 Alpha  occ. eigenvalues --   -0.69529  -0.67751  -0.59965  -0.59216  -0.58491
 Alpha  occ. eigenvalues --   -0.56341  -0.53473  -0.52849  -0.50734  -0.49473
 Alpha  occ. eigenvalues --   -0.48947  -0.48197  -0.47897  -0.47351  -0.46518
 Alpha  occ. eigenvalues --   -0.44746  -0.41531  -0.40881  -0.39925  -0.39545
 Alpha  occ. eigenvalues --   -0.38489  -0.37149  -0.33573  -0.24871
 Alpha virt. eigenvalues --   -0.00073   0.09867   0.10495   0.12518   0.13110
 Alpha virt. eigenvalues --    0.14085   0.14598   0.15443   0.16026   0.16298
 Alpha virt. eigenvalues --    0.16828   0.17073   0.18342   0.19926   0.20452

  Beta  occ. eigenvalues --  -10.29928 -10.29708 -10.28785 -10.28521 -10.28461
  Beta  occ. eigenvalues --  -10.28418 -10.28202 -10.28127 -10.27998 -10.27975
  Beta  occ. eigenvalues --  -10.27888 -10.27806  -0.94974  -0.92879  -0.85214
  Beta  occ. eigenvalues --   -0.84522  -0.83618  -0.81648  -0.71076  -0.70272
  Beta  occ. eigenvalues --   -0.69529  -0.67751  -0.59965  -0.59216  -0.58491
  Beta  occ. eigenvalues --   -0.56341  -0.53473  -0.52849  -0.50734  -0.49473
  Beta  occ. eigenvalues --   -0.48947  -0.48197  -0.47897  -0.47351  -0.46518
  Beta  occ. eigenvalues --   -0.44746  -0.41531  -0.40881  -0.39926  -0.39545
  Beta  occ. eigenvalues --   -0.38489  -0.37149  -0.33573  -0.24871
  Beta virt. eigenvalues --   -0.00073   0.09866   0.10495   0.12518   0.13110
  Beta virt. eigenvalues --    0.14085   0.14598   0.15443   0.16026   0.16298
  Beta virt. eigenvalues --    0.16828   0.17072   0.18342   0.19926   0.20452

 Mulliken charges and spin densities:
               1          2
     1  C   -0.201645  -0.541350
     2  C   -0.137922   0.114583
     3  H    0.144782   0.022691
     4  H    0.139400  -0.010154
     5  C   -0.177699   0.606753
     6  C   -0.137934  -0.114583
     7  H    0.157130  -0.025131
     8  H    0.139375   0.010155
     9  C   -0.216290   0.011161
    10  H    0.118839  -0.001894
    11  H    0.135265  -0.001722
    12  C   -0.169047  -0.222847
    13  H    0.142741   0.008916
    14  C   -0.201657   0.541341
    15  H    0.144788  -0.022691
    16  C   -0.179748  -0.034126
    17  H    0.116911   0.030047
    18  H    0.127313   0.012897
    19  C   -0.177681  -0.606746
    20  H    0.157182   0.025130
    21  C   -0.169154   0.222850
    22  H    0.142761  -0.008916
    23  C   -0.216213  -0.011161
    24  H    0.135149   0.001724
    25  H    0.118855   0.001894
    26  C   -0.179737   0.034126
    27  H    0.127323  -0.012897
    28  H    0.116915  -0.030048
 Sum of Mulliken charges =  -0.00000   0.00000

 Dipole moment (field-independent basis, Debye):
    X=              0.0004    Y=             -0.0005    Z=             -0.0004  Tot=              0.0008
 Quadrupole moment (field-independent basis, Debye-Ang):
   XX=            -72.2330   YY=            -71.1186   ZZ=            -76.3499
   XY=             -2.7035   XZ=             -3.0502   YZ=             -0.4269

 Normal termination of Gaussian 16 at Mon Aug  3 16:45:04 2020.
