 Gaussian 16, Revision B.01,
 Gaussian 16:  ES64L-G16RevB.01 20-Dec-2017

 ----------------------------------------------------------------------
 #p uwb97xd guess=mix def2tzvp # scrf=(iefpcm,solvent=Cyclohexane,read)
  nosym 6d 10f
 ----------------------------------------------------------------------

 -----------------------
 endo-2 xp-pcm for eta=3
 -----------------------
 Symbolic Z-matrix:
 Charge =  0 Multiplicity = 1

                          Input orientation:
 ---------------------------------------------------------------------
 Center     Atomic      Atomic             Coordinates (Angstroms)
 Number     Number       Type             X           Y           Z
 ---------------------------------------------------------------------
      1          6           0       -3.124486   -0.439464    0.250893
      2          6           0       -0.647306   -0.230427   -1.105597
      3          1           0       -4.084971   -0.544748    0.742034
      4          1           0        0.323194   -0.137629   -1.574480
      5          6           0        1.115957    1.415764    0.726197
      6          6           0        0.647306    0.230427    1.105597
      7          1           0        0.524506    2.313770    0.854246
      8          1           0       -0.323194    0.137629    1.574480
      9          6           0        1.503007   -1.001045    1.038660
     10          1           0        1.985221   -1.095436    2.019831
     11          1           0        0.887003   -1.891265    0.921479
     12          6           0        2.433841    1.521901    0.105946
     13          1           0        2.840105    2.509020   -0.080013
     14          6           0        3.124486    0.439464   -0.250893
     15          1           0        4.084971    0.544748   -0.742034
     16          6           0        2.587213   -0.950307   -0.043454
     17          1           0        2.204157   -1.326175   -1.000254
     18          1           0        3.400038   -1.626681    0.228849
     19          6           0       -1.115957   -1.415764   -0.726197
     20          1           0       -0.524506   -2.313770   -0.854246
     21          6           0       -2.433841   -1.521901   -0.105946
     22          1           0       -2.840105   -2.509020    0.080013
     23          6           0       -1.503007    1.001045   -1.038660
     24          1           0       -0.887003    1.891265   -0.921479
     25          1           0       -1.985221    1.095436   -2.019831
     26          6           0       -2.587213    0.950307    0.043454
     27          1           0       -3.400038    1.626680   -0.228849
     28          1           0       -2.204158    1.326175    1.000254
 ---------------------------------------------------------------------

 SCF Done:  E(UwB97XD) =  -466.848617374     A.U. after   18 cycles

 Alpha  occ. eigenvalues --  -10.28618 -10.28617 -10.28282 -10.28281 -10.28261
 Alpha  occ. eigenvalues --  -10.28259 -10.28233 -10.28232 -10.28021 -10.28019
 Alpha  occ. eigenvalues --  -10.27375 -10.27373  -0.94502  -0.93548  -0.84638
 Alpha  occ. eigenvalues --   -0.84370  -0.83716  -0.83650  -0.71703  -0.71123
 Alpha  occ. eigenvalues --   -0.68272  -0.67926  -0.59910  -0.59807  -0.57591
 Alpha  occ. eigenvalues --   -0.56543  -0.53777  -0.52963  -0.51068  -0.51007
 Alpha  occ. eigenvalues --   -0.49912  -0.49214  -0.47615  -0.46932  -0.45692
 Alpha  occ. eigenvalues --   -0.44972  -0.41490  -0.41025  -0.39926  -0.39276
 Alpha  occ. eigenvalues --   -0.39240  -0.38805  -0.30124  -0.26955
 Alpha virt. eigenvalues --    0.02780   0.05750   0.10514   0.12345   0.13428
 Alpha virt. eigenvalues --    0.14565   0.14893   0.15715   0.15810   0.15905
 Alpha virt. eigenvalues --    0.16620   0.17008   0.17371   0.18256   0.19971

  Beta  occ. eigenvalues --  -10.28618 -10.28617 -10.28282 -10.28281 -10.28261
  Beta  occ. eigenvalues --  -10.28259 -10.28233 -10.28232 -10.28021 -10.28019
  Beta  occ. eigenvalues --  -10.27375 -10.27373  -0.94502  -0.93548  -0.84638
  Beta  occ. eigenvalues --   -0.84370  -0.83716  -0.83650  -0.71703  -0.71123
  Beta  occ. eigenvalues --   -0.68272  -0.67926  -0.59910  -0.59807  -0.57591
  Beta  occ. eigenvalues --   -0.56543  -0.53777  -0.52963  -0.51068  -0.51007
  Beta  occ. eigenvalues --   -0.49912  -0.49214  -0.47615  -0.46932  -0.45692
  Beta  occ. eigenvalues --   -0.44972  -0.41490  -0.41025  -0.39926  -0.39276
  Beta  occ. eigenvalues --   -0.39240  -0.38805  -0.30124  -0.26955
  Beta virt. eigenvalues --    0.02780   0.05750   0.10514   0.12345   0.13428
  Beta virt. eigenvalues --    0.14565   0.14893   0.15715   0.15810   0.15905
  Beta virt. eigenvalues --    0.16620   0.17008   0.17371   0.18256   0.19971

 Mulliken charges and spin densities:
               1          2
     1  C   -0.209379  -0.000000
     2  C   -0.192893   0.000000
     3  H    0.141545   0.000000
     4  H    0.168884  -0.000000
     5  C   -0.155885   0.000000
     6  C   -0.192769  -0.000000
     7  H    0.153964   0.000000
     8  H    0.168717   0.000000
     9  C   -0.213660  -0.000001
    10  H    0.119852   0.000000
    11  H    0.142116   0.000000
    12  C   -0.165566  -0.000000
    13  H    0.144853  -0.000000
    14  C   -0.209421   0.000000
    15  H    0.141552  -0.000000
    16  C   -0.173472   0.000000
    17  H    0.113519  -0.000000
    18  H    0.126175  -0.000000
    19  C   -0.155936  -0.000000
    20  H    0.154039  -0.000000
    21  C   -0.165528   0.000000
    22  H    0.144852   0.000000
    23  C   -0.213738   0.000001
    24  H    0.142169  -0.000000
    25  H    0.119848  -0.000000
    26  C   -0.173532  -0.000000
    27  H    0.126185   0.000000
    28  H    0.113510   0.000000
 Sum of Mulliken charges =  -0.00000  -0.00000

 Dipole moment (field-independent basis, Debye):
    X=              0.0002    Y=             -0.0004    Z=             -0.0002  Tot=              0.0005
 Quadrupole moment (field-independent basis, Debye-Ang):
   XX=            -72.2226   YY=            -69.8539   ZZ=            -77.2284
   XY=             -3.3386   XZ=             -3.4367   YZ=             -1.6346

 Normal termination of Gaussian 16 at Mon Aug  3 15:21:18 2020.
