 Gaussian 16, Revision B.01,

 ----------------------------------------------------------------------
 #p uwb97xd guess=mix def2tzvp # scrf=(iefpcm,solvent=Cyclohexane,read)
  nosym 6d 10f
 ----------------------------------------------------------------------

 -----------------------
 endo-2 xp-pcm for eta=3
 -----------------------
 Symbolic Z-matrix:
 Charge =  0 Multiplicity = 1

 SCF Done:  E(UwB97XD) =  -466.834497376     A.U. after   18 cycles
 Normal termination of Gaussian 16 at Tue Aug  4 08:03:47 2020.

 ----------------------------------------------------------------------
 #p uwb97xd guess=mix def2tzvp # scrf=(iefpcm,solvent=Cyclohexane,read)
  nosym 6d 10f
 ----------------------------------------------------------------------

 -----------------------
 endo-2 xp-pcm for eta=3
 -----------------------
 Symbolic Z-matrix:
 Charge =  0 Multiplicity = 1

 SCF Done:  E(UwB97XD) =  -466.832186911     A.U. after   18 cycles
 Normal termination of Gaussian 16 at Tue Aug  4 08:09:33 2020.

 ----------------------------------------------------------------------
 #p uwb97xd guess=mix def2tzvp # scrf=(iefpcm,solvent=Cyclohexane,read)
  nosym 6d 10f
 ----------------------------------------------------------------------

 -----------------------
 endo-2 xp-pcm for eta=3
 -----------------------
 Symbolic Z-matrix:
 Charge =  0 Multiplicity = 1

 SCF Done:  E(UwB97XD) =  -466.827320928     A.U. after   18 cycles
 Normal termination of Gaussian 16 at Tue Aug  4 08:15:18 2020.

 ----------------------------------------------------------------------
 #p uwb97xd guess=mix def2tzvp # scrf=(iefpcm,solvent=Cyclohexane,read)
  nosym 6d 10f
 ----------------------------------------------------------------------

 -----------------------
 endo-2 xp-pcm for eta=3
 -----------------------
 Symbolic Z-matrix:
 Charge =  0 Multiplicity = 1

 SCF Done:  E(UwB97XD) =  -466.820250089     A.U. after   18 cycles
 Normal termination of Gaussian 16 at Tue Aug  4 08:21:01 2020.

 ----------------------------------------------------------------------
 #p uwb97xd guess=mix def2tzvp # scrf=(iefpcm,solvent=Cyclohexane,read)
  nosym 6d 10f
 ----------------------------------------------------------------------

 -----------------------
 endo-2 xp-pcm for eta=3
 -----------------------
 Symbolic Z-matrix:
 Charge =  0 Multiplicity = 1

 SCF Done:  E(UwB97XD) =  -466.809780400     A.U. after   18 cycles
 Normal termination of Gaussian 16 at Tue Aug  4 08:26:46 2020.

 ----------------------------------------------------------------------
 #p uwb97xd guess=mix def2tzvp # scrf=(iefpcm,solvent=Cyclohexane,read)
  nosym 6d 10f
 ----------------------------------------------------------------------

 -----------------------
 endo-2 xp-pcm for eta=3
 -----------------------
 Symbolic Z-matrix:
 Charge =  0 Multiplicity = 1

 SCF Done:  E(UwB97XD) =  -466.804369128     A.U. after   18 cycles
 Normal termination of Gaussian 16 at Tue Aug  4 08:32:31 2020.
 Gaussian 16:  ES64L-G16RevB.01 20-Dec-2017

                          Input orientation:
 ---------------------------------------------------------------------
 Center     Atomic      Atomic             Coordinates (Angstroms)
 Number     Number       Type             X           Y           Z
 ---------------------------------------------------------------------
      1          6           0       -3.122592   -0.438388    0.249109
      2          6           0       -0.621801   -0.222716   -1.060943
      3          1           0       -4.085324   -0.547212    0.735016
      4          1           0        0.349284   -0.128633   -1.527138
      5          6           0        1.104299    1.412726    0.711533
      6          6           0        0.621801    0.222716    1.060943
      7          1           0        0.516259    2.312051    0.844298
      8          1           0       -0.349284    0.128633    1.527138
      9          6           0        1.489396   -1.000996    1.019772
     10          1           0        1.961797   -1.065850    2.008075
     11          1           0        0.889010   -1.902931    0.914465
     12          6           0        2.428355    1.519137    0.107940
     13          1           0        2.836160    2.506797   -0.071809
     14          6           0        3.122592    0.438388   -0.249109
     15          1           0        4.085324    0.547212   -0.735016
     16          6           0        2.589439   -0.953530   -0.045302
     17          1           0        2.226867   -1.339383   -1.006111
     18          1           0        3.400958   -1.623074    0.247309
     19          6           0       -1.104299   -1.412726   -0.711533
     20          1           0       -0.516259   -2.312051   -0.844298
     21          6           0       -2.428355   -1.519137   -0.107940
     22          1           0       -2.836160   -2.506797    0.071809
     23          6           0       -1.489396    1.000996   -1.019772
     24          1           0       -0.889010    1.902931   -0.914465
     25          1           0       -1.961797    1.065850   -2.008075
     26          6           0       -2.589439    0.953530    0.045302
     27          1           0       -3.400958    1.623074   -0.247309
     28          1           0       -2.226867    1.339383    1.006111
 ---------------------------------------------------------------------

 SCF Done:  E(UwB97XD) =  -466.795902672     A.U. after   18 cycles

 Alpha  occ. eigenvalues --  -10.27388 -10.27387 -10.27145 -10.27145 -10.27020
 Alpha  occ. eigenvalues --  -10.27019 -10.27008 -10.27005 -10.26775 -10.26775
 Alpha  occ. eigenvalues --  -10.26103 -10.26103  -0.93562  -0.92470  -0.83708
 Alpha  occ. eigenvalues --   -0.83340  -0.82640  -0.82517  -0.70676  -0.70001
 Alpha  occ. eigenvalues --   -0.67332  -0.66853  -0.58864  -0.58812  -0.56631
 Alpha  occ. eigenvalues --   -0.55439  -0.52664  -0.51952  -0.50010  -0.49886
 Alpha  occ. eigenvalues --   -0.48821  -0.48043  -0.46549  -0.45835  -0.44752
 Alpha  occ. eigenvalues --   -0.43818  -0.40420  -0.39929  -0.38867  -0.38199
 Alpha  occ. eigenvalues --   -0.38157  -0.37681  -0.29219  -0.25573
 Alpha virt. eigenvalues --    0.03704   0.07362   0.13381   0.15103   0.16616
 Alpha virt. eigenvalues --    0.16769   0.17701   0.18377   0.18718   0.18924
 Alpha virt. eigenvalues --    0.19450   0.19475   0.20376   0.21312   0.22974

  Beta  occ. eigenvalues --  -10.27388 -10.27387 -10.27145 -10.27145 -10.27020
  Beta  occ. eigenvalues --  -10.27019 -10.27008 -10.27005 -10.26775 -10.26775
  Beta  occ. eigenvalues --  -10.26103 -10.26103  -0.93562  -0.92470  -0.83708
  Beta  occ. eigenvalues --   -0.83340  -0.82640  -0.82517  -0.70676  -0.70001
  Beta  occ. eigenvalues --   -0.67332  -0.66853  -0.58864  -0.58812  -0.56631
  Beta  occ. eigenvalues --   -0.55439  -0.52664  -0.51952  -0.50010  -0.49886
  Beta  occ. eigenvalues --   -0.48821  -0.48043  -0.46549  -0.45835  -0.44752
  Beta  occ. eigenvalues --   -0.43818  -0.40420  -0.39929  -0.38867  -0.38199
  Beta  occ. eigenvalues --   -0.38157  -0.37681  -0.29219  -0.25573
  Beta virt. eigenvalues --    0.03704   0.07362   0.13381   0.15103   0.16616
  Beta virt. eigenvalues --    0.16769   0.17701   0.18377   0.18718   0.18924
  Beta virt. eigenvalues --    0.19450   0.19475   0.20376   0.21312   0.22974

 Mulliken charges and spin densities:
               1          2
     1  C   -0.202658   0.000001
     2  C   -0.210173  -0.000001
     3  H    0.147790  -0.000000
     4  H    0.183896   0.000000
     5  C   -0.172409   0.000001
     6  C   -0.211547  -0.000001
     7  H    0.164333   0.000000
     8  H    0.183981  -0.000000
     9  C   -0.237321   0.000001
    10  H    0.133407  -0.000000
    11  H    0.154195  -0.000000
    12  C   -0.170545  -0.000000
    13  H    0.150870  -0.000000
    14  C   -0.203003   0.000001
    15  H    0.147902   0.000000
    16  C   -0.198764  -0.000000
    17  H    0.124260   0.000000
    18  H    0.134652   0.000000
    19  C   -0.171473   0.000000
    20  H    0.164249  -0.000000
    21  C   -0.171333  -0.000001
    22  H    0.150500   0.000000
    23  C   -0.238194  -0.000001
    24  H    0.153590   0.000000
    25  H    0.133451   0.000000
    26  C   -0.197982   0.000000
    27  H    0.134636  -0.000000
    28  H    0.123694  -0.000000
 Sum of Mulliken charges =  -0.00000   0.00000

 Dipole moment (field-independent basis, Debye):
    X=             -0.0021    Y=             -0.0024    Z=              0.0001  Tot=              0.0032
 Quadrupole moment (field-independent basis, Debye-Ang):
   XX=            -70.1906   YY=            -68.2243   ZZ=            -75.7089
   XY=             -3.4016   XZ=             -3.3580   YZ=             -1.5731

 Normal termination of Gaussian 16 at Tue Aug  4 08:38:13 2020.
