 Gaussian 16, Revision B.01,

 ----------------------------------------------------------------------
 #p uwb97xd guess=mix def2tzvp # scrf=(iefpcm,solvent=Cyclohexane,read)
  nosym 6d 10f
 ----------------------------------------------------------------------

 -----------------------
 endo-2 xp-pcm for eta=3
 -----------------------
 Symbolic Z-matrix:
 Charge =  0 Multiplicity = 1

 SCF Done:  E(UwB97XD) =  -466.846836162     A.U. after   18 cycles
 Normal termination of Gaussian 16 at Tue Aug  4 02:45:14 2020.

 ----------------------------------------------------------------------
 #p uwb97xd guess=mix def2tzvp # scrf=(iefpcm,solvent=Cyclohexane,read)
  nosym 6d 10f
 ----------------------------------------------------------------------

 -----------------------
 endo-2 xp-pcm for eta=3
 -----------------------
 Symbolic Z-matrix:
 Charge =  0 Multiplicity = 1

 SCF Done:  E(UwB97XD) =  -466.842783238     A.U. after   18 cycles
 Normal termination of Gaussian 16 at Tue Aug  4 02:50:53 2020.

 ----------------------------------------------------------------------
 #p uwb97xd guess=mix def2tzvp # scrf=(iefpcm,solvent=Cyclohexane,read)
  nosym 6d 10f
 ----------------------------------------------------------------------

 -----------------------
 endo-2 xp-pcm for eta=3
 -----------------------
 Symbolic Z-matrix:
 Charge =  0 Multiplicity = 1

 SCF Done:  E(UwB97XD) =  -466.838222828     A.U. after   18 cycles
 Normal termination of Gaussian 16 at Tue Aug  4 02:56:30 2020.

 ----------------------------------------------------------------------
 #p uwb97xd guess=mix def2tzvp # scrf=(iefpcm,solvent=Cyclohexane,read)
  nosym 6d 10f
 ----------------------------------------------------------------------

 -----------------------
 endo-2 xp-pcm for eta=3
 -----------------------
 Symbolic Z-matrix:
 Charge =  0 Multiplicity = 1

 SCF Done:  E(UwB97XD) =  -466.829894572     A.U. after   18 cycles
 Normal termination of Gaussian 16 at Tue Aug  4 03:02:10 2020.

 ----------------------------------------------------------------------
 #p uwb97xd guess=mix def2tzvp # scrf=(iefpcm,solvent=Cyclohexane,read)
  nosym 6d 10f
 ----------------------------------------------------------------------

 -----------------------
 endo-2 xp-pcm for eta=3
 -----------------------
 Symbolic Z-matrix:
 Charge =  0 Multiplicity = 1

 SCF Done:  E(UwB97XD) =  -466.822375868     A.U. after   18 cycles
 Normal termination of Gaussian 16 at Tue Aug  4 03:07:52 2020.

 ----------------------------------------------------------------------
 #p uwb97xd guess=mix def2tzvp # scrf=(iefpcm,solvent=Cyclohexane,read)
  nosym 6d 10f
 ----------------------------------------------------------------------

 -----------------------
 endo-2 xp-pcm for eta=3
 -----------------------
 Symbolic Z-matrix:
 Charge =  0 Multiplicity = 1

 SCF Done:  E(UwB97XD) =  -466.816223585     A.U. after   18 cycles
 Normal termination of Gaussian 16 at Tue Aug  4 03:13:31 2020.
 Gaussian 16:  ES64L-G16RevB.01 20-Dec-2017

                          Input orientation:
 ---------------------------------------------------------------------
 Center     Atomic      Atomic             Coordinates (Angstroms)
 Number     Number       Type             X           Y           Z
 ---------------------------------------------------------------------
      1          6           0       -3.127753   -0.441522    0.261122
      2          6           0       -0.719921   -0.248221   -1.219838
      3          1           0       -4.073595   -0.535125    0.782132
      4          1           0        0.234126   -0.164733   -1.725204
      5          6           0        1.160074    1.424218    0.782600
      6          6           0        0.719921    0.248221    1.219838
      7          1           0        0.566933    2.320735    0.917353
      8          1           0       -0.234126    0.164733    1.725204
      9          6           0        1.554591   -0.994289    1.104230
     10          1           0        2.077836   -1.126314    2.059864
     11          1           0        0.911886   -1.867512    0.990956
     12          6           0        2.453641    1.529303    0.107811
     13          1           0        2.853781    2.515042   -0.097470
     14          6           0        3.127753    0.441522   -0.261122
     15          1           0        4.073595    0.535125   -0.782132
     16          6           0        2.577324   -0.940508   -0.036133
     17          1           0        2.121249   -1.285571   -0.972240
     18          1           0        3.390356   -1.639895    0.168128
     19          6           0       -1.160074   -1.424218   -0.782600
     20          1           0       -0.566933   -2.320735   -0.917353
     21          6           0       -2.453641   -1.529303   -0.107811
     22          1           0       -2.853781   -2.515042    0.097470
     23          6           0       -1.554591    0.994289   -1.104230
     24          1           0       -0.911886    1.867512   -0.990956
     25          1           0       -2.077836    1.126314   -2.059864
     26          6           0       -2.577324    0.940508    0.036133
     27          1           0       -3.390356    1.639895   -0.168129
     28          1           0       -2.121249    1.285571    0.972240
 ---------------------------------------------------------------------

 SCF Done:  E(UwB97XD) =  -466.808639706     A.U. after   18 cycles

 Alpha  occ. eigenvalues --  -10.27331 -10.27324 -10.27090 -10.27083 -10.27065
 Alpha  occ. eigenvalues --  -10.27063 -10.27054 -10.27049 -10.26783 -10.26780
 Alpha  occ. eigenvalues --  -10.26390 -10.26385  -0.93210  -0.92566  -0.83333
 Alpha  occ. eigenvalues --   -0.83185  -0.82793  -0.82678  -0.70483  -0.70169
 Alpha  occ. eigenvalues --   -0.67040  -0.66930  -0.58758  -0.58615  -0.56399
 Alpha  occ. eigenvalues --   -0.55631  -0.52658  -0.51786  -0.49949  -0.49917
 Alpha  occ. eigenvalues --   -0.48845  -0.48323  -0.46342  -0.45828  -0.44260
 Alpha  occ. eigenvalues --   -0.43991  -0.40276  -0.39960  -0.38724  -0.38319
 Alpha  occ. eigenvalues --   -0.38194  -0.37963  -0.28850  -0.26472
 Alpha virt. eigenvalues --    0.04596   0.06279   0.13334   0.14788   0.16487
 Alpha virt. eigenvalues --    0.16891   0.17363   0.18134   0.18508   0.19076
 Alpha virt. eigenvalues --    0.19477   0.19524   0.20128   0.21224   0.22985

  Beta  occ. eigenvalues --  -10.27331 -10.27324 -10.27090 -10.27083 -10.27065
  Beta  occ. eigenvalues --  -10.27063 -10.27054 -10.27049 -10.26783 -10.26780
  Beta  occ. eigenvalues --  -10.26390 -10.26385  -0.93210  -0.92566  -0.83333
  Beta  occ. eigenvalues --   -0.83185  -0.82793  -0.82678  -0.70483  -0.70169
  Beta  occ. eigenvalues --   -0.67040  -0.66930  -0.58758  -0.58615  -0.56399
  Beta  occ. eigenvalues --   -0.55631  -0.52658  -0.51786  -0.49949  -0.49917
  Beta  occ. eigenvalues --   -0.48845  -0.48323  -0.46342  -0.45828  -0.44260
  Beta  occ. eigenvalues --   -0.43991  -0.40276  -0.39960  -0.38724  -0.38319
  Beta  occ. eigenvalues --   -0.38194  -0.37963  -0.28850  -0.26472
  Beta virt. eigenvalues --    0.04596   0.06279   0.13334   0.14788   0.16487
  Beta virt. eigenvalues --    0.16891   0.17363   0.18134   0.18508   0.19076
  Beta virt. eigenvalues --    0.19477   0.19524   0.20128   0.21224   0.22985

 Mulliken charges and spin densities:
               1          2
     1  C   -0.203782  -0.000001
     2  C   -0.199585   0.000001
     3  H    0.148167   0.000000
     4  H    0.172927  -0.000000
     5  C   -0.188367  -0.000001
     6  C   -0.198454   0.000001
     7  H    0.167398  -0.000000
     8  H    0.171917  -0.000000
     9  C   -0.222753   0.000000
    10  H    0.131124  -0.000000
    11  H    0.146103  -0.000000
    12  C   -0.163497   0.000001
    13  H    0.151793   0.000000
    14  C   -0.201883  -0.000001
    15  H    0.148084   0.000000
    16  C   -0.193488  -0.000000
    17  H    0.119317  -0.000000
    18  H    0.132890   0.000000
    19  C   -0.188391  -0.000001
    20  H    0.166881   0.000000
    21  C   -0.160491   0.000001
    22  H    0.150985  -0.000000
    23  C   -0.223089  -0.000001
    24  H    0.145636   0.000000
    25  H    0.131541   0.000000
    26  C   -0.193787   0.000000
    27  H    0.133366  -0.000000
    28  H    0.119438  -0.000000
 Sum of Mulliken charges =  -0.00000   0.00000

 Dipole moment (field-independent basis, Debye):
    X=              0.0010    Y=             -0.0037    Z=             -0.0028  Tot=              0.0048
 Quadrupole moment (field-independent basis, Debye-Ang):
   XX=            -70.2275   YY=            -68.1437   ZZ=            -75.4060
   XY=             -3.3756   XZ=             -3.6925   YZ=             -1.7299

 Normal termination of Gaussian 16 at Tue Aug  4 03:19:08 2020.
