 Gaussian 16, Revision B.01,

 ----------------------------------------------------------------------
 #p uwb97xd guess=mix def2tzvp # scrf=(iefpcm,solvent=Cyclohexane,read)
  nosym 6d 10f
 ----------------------------------------------------------------------

 -----------------------
 endo-2 xp-pcm for eta=3
 -----------------------
 Symbolic Z-matrix:
 Charge =  0 Multiplicity = 1

 SCF Done:  E(UwB97XD) =  -466.808862257     A.U. after   23 cycles
 Normal termination of Gaussian 16 at Tue Aug  4 13:02:10 2020.

 ----------------------------------------------------------------------
 #p uwb97xd guess=mix def2tzvp # scrf=(iefpcm,solvent=Cyclohexane,read)
  nosym 6d 10f
 ----------------------------------------------------------------------

 -----------------------
 endo-2 xp-pcm for eta=3
 -----------------------
 Symbolic Z-matrix:
 Charge =  0 Multiplicity = 1

 SCF Done:  E(UwB97XD) =  -466.805623277     A.U. after   23 cycles
 Normal termination of Gaussian 16 at Tue Aug  4 13:09:42 2020.

 ----------------------------------------------------------------------
 #p uwb97xd guess=mix def2tzvp # scrf=(iefpcm,solvent=Cyclohexane,read)
  nosym 6d 10f
 ----------------------------------------------------------------------

 -----------------------
 endo-2 xp-pcm for eta=3
 -----------------------
 Symbolic Z-matrix:
 Charge =  0 Multiplicity = 1

 SCF Done:  E(UwB97XD) =  -466.800829748     A.U. after   23 cycles
 Normal termination of Gaussian 16 at Tue Aug  4 13:17:06 2020.

 ----------------------------------------------------------------------
 #p uwb97xd guess=mix def2tzvp # scrf=(iefpcm,solvent=Cyclohexane,read)
  nosym 6d 10f
 ----------------------------------------------------------------------

 -----------------------
 endo-2 xp-pcm for eta=3
 -----------------------
 Symbolic Z-matrix:
 Charge =  0 Multiplicity = 1

 SCF Done:  E(UwB97XD) =  -466.794138581     A.U. after   23 cycles
 Normal termination of Gaussian 16 at Tue Aug  4 13:24:24 2020.

 ----------------------------------------------------------------------
 #p uwb97xd guess=mix def2tzvp # scrf=(iefpcm,solvent=Cyclohexane,read)
  nosym 6d 10f
 ----------------------------------------------------------------------

 -----------------------
 endo-2 xp-pcm for eta=3
 -----------------------
 Symbolic Z-matrix:
 Charge =  0 Multiplicity = 1

 SCF Done:  E(UwB97XD) =  -466.784327314     A.U. after   23 cycles
 Normal termination of Gaussian 16 at Tue Aug  4 13:31:46 2020.

 ----------------------------------------------------------------------
 #p uwb97xd guess=mix def2tzvp # scrf=(iefpcm,solvent=Cyclohexane,read)
  nosym 6d 10f
 ----------------------------------------------------------------------

 -----------------------
 endo-2 xp-pcm for eta=3
 -----------------------
 Symbolic Z-matrix:
 Charge =  0 Multiplicity = 1

 SCF Done:  E(UwB97XD) =  -466.777542528     A.U. after   23 cycles
 Normal termination of Gaussian 16 at Tue Aug  4 13:39:21 2020.
 Gaussian 16:  ES64L-G16RevB.01 20-Dec-2017

                          Input orientation:
 ---------------------------------------------------------------------
 Center     Atomic      Atomic             Coordinates (Angstroms)
 Number     Number       Type             X           Y           Z
 ---------------------------------------------------------------------
      1          6           0       -3.118154   -0.434970    0.246911
      2          6           0       -0.525244   -0.179089   -0.881108
      3          1           0       -4.082876   -0.549545    0.727275
      4          1           0        0.369421   -0.116466   -1.488305
      5          6           0        1.095749    1.409502    0.684953
      6          6           0        0.525244    0.179089    0.881108
      7          1           0        0.534376    2.315268    0.877539
      8          1           0       -0.369421    0.116466    1.488305
      9          6           0        1.464053   -0.999907    0.987811
     10          1           0        1.902396   -0.948136    1.990906
     11          1           0        0.922907   -1.944294    0.931362
     12          6           0        2.412752    1.518768    0.114990
     13          1           0        2.825512    2.507319   -0.049863
     14          6           0        3.118154    0.434970   -0.246911
     15          1           0        4.082876    0.549545   -0.727275
     16          6           0        2.591960   -0.958481   -0.043904
     17          1           0        2.251216   -1.356631   -1.007828
     18          1           0        3.400803   -1.621376    0.271761
     19          6           0       -1.095749   -1.409502   -0.684954
     20          1           0       -0.534376   -2.315268   -0.877539
     21          6           0       -2.412752   -1.518768   -0.114990
     22          1           0       -2.825512   -2.507319    0.049863
     23          6           0       -1.464053    0.999907   -0.987811
     24          1           0       -0.922907    1.944294   -0.931362
     25          1           0       -1.902396    0.948136   -1.990906
     26          6           0       -2.591960    0.958481    0.043904
     27          1           0       -3.400803    1.621376   -0.271761
     28          1           0       -2.251216    1.356631    1.007828
 ---------------------------------------------------------------------

 SCF Done:  E(UwB97XD) =  -466.770563591     A.U. after   23 cycles

 Alpha  occ. eigenvalues --  -10.28280 -10.28106 -10.27336 -10.27326 -10.27166
 Alpha  occ. eigenvalues --  -10.27018 -10.27005 -10.26996 -10.26832 -10.26746
 Alpha  occ. eigenvalues --  -10.26440 -10.26214  -0.93958  -0.92290  -0.84088
 Alpha  occ. eigenvalues --   -0.83387  -0.82605  -0.81841  -0.70437  -0.69501
 Alpha  occ. eigenvalues --   -0.68129  -0.66839  -0.59052  -0.58651  -0.57084
 Alpha  occ. eigenvalues --   -0.55331  -0.52271  -0.52191  -0.49959  -0.49301
 Alpha  occ. eigenvalues --   -0.48552  -0.47470  -0.46758  -0.46174  -0.45356
 Alpha  occ. eigenvalues --   -0.43661  -0.40428  -0.40012  -0.38814  -0.38455
 Alpha  occ. eigenvalues --   -0.38075  -0.36886  -0.30609  -0.22949
 Alpha virt. eigenvalues --    0.00669   0.09453   0.13346   0.15412   0.15980
 Alpha virt. eigenvalues --    0.16442   0.17697   0.18561   0.19050   0.19257
 Alpha virt. eigenvalues --    0.19424   0.20342   0.20461   0.21615   0.23001

  Beta  occ. eigenvalues --  -10.28282 -10.28104 -10.27338 -10.27324 -10.27167
  Beta  occ. eigenvalues --  -10.27016 -10.27009 -10.26992 -10.26831 -10.26747
  Beta  occ. eigenvalues --  -10.26439 -10.26215  -0.93958  -0.92290  -0.84088
  Beta  occ. eigenvalues --   -0.83387  -0.82605  -0.81842  -0.70437  -0.69501
  Beta  occ. eigenvalues --   -0.68129  -0.66839  -0.59052  -0.58651  -0.57084
  Beta  occ. eigenvalues --   -0.55331  -0.52271  -0.52191  -0.49959  -0.49301
  Beta  occ. eigenvalues --   -0.48552  -0.47470  -0.46759  -0.46174  -0.45356
  Beta  occ. eigenvalues --   -0.43662  -0.40428  -0.40012  -0.38814  -0.38455
  Beta  occ. eigenvalues --   -0.38074  -0.36886  -0.30609  -0.22948
  Beta virt. eigenvalues --    0.00669   0.09453   0.13347   0.15412   0.15980
  Beta virt. eigenvalues --    0.16442   0.17697   0.18560   0.19050   0.19258
  Beta virt. eigenvalues --    0.19424   0.20341   0.20461   0.21615   0.23000

 Mulliken charges and spin densities:
               1          2
     1  C   -0.205240   0.132293
     2  C   -0.208944  -0.117154
     3  H    0.148719  -0.005458
     4  H    0.183777   0.006058
     5  C   -0.170384  -0.185497
     6  C   -0.207373   0.117196
     7  H    0.162651   0.007580
     8  H    0.182924  -0.006054
     9  C   -0.236142  -0.004574
    10  H    0.135513   0.004075
    11  H    0.151712   0.001521
    12  C   -0.174446   0.072516
    13  H    0.150237  -0.002806
    14  C   -0.206326  -0.132292
    15  H    0.148662   0.005457
    16  C   -0.198691   0.009261
    17  H    0.126984  -0.007090
    18  H    0.135646  -0.003287
    19  C   -0.170790   0.185465
    20  H    0.162096  -0.007586
    21  C   -0.175873  -0.072509
    22  H    0.150678   0.002806
    23  C   -0.234490   0.004543
    24  H    0.152773  -0.001510
    25  H    0.134541  -0.004072
    26  C   -0.201257  -0.009264
    27  H    0.136017   0.003288
    28  H    0.127029   0.007093
 Sum of Mulliken charges =  -0.00000  -0.00000

 Dipole moment (field-independent basis, Debye):
    X=             -0.0003    Y=              0.0017    Z=             -0.0053  Tot=              0.0056
 Quadrupole moment (field-independent basis, Debye-Ang):
   XX=            -70.5450   YY=            -68.6646   ZZ=            -75.3085
   XY=             -3.2301   XZ=             -3.1644   YZ=             -1.0221

 Normal termination of Gaussian 16 at Tue Aug  4 13:46:56 2020.
