 Gaussian 16, Revision B.01,
 Gaussian 16:  ES64L-G16RevB.01 20-Dec-2017

 ----------------------------------------------------------------------
 #p uwb97xd guess=mix def2tzvp # scrf=(iefpcm,solvent=Cyclohexane,read)
  nosym 6d 10f
 ----------------------------------------------------------------------

 -----------------------
 endo-2 xp-pcm for eta=3
 -----------------------
 Symbolic Z-matrix:
 Charge =  0 Multiplicity = 1

                          Input orientation:
 ---------------------------------------------------------------------
 Center     Atomic      Atomic             Coordinates (Angstroms)
 Number     Number       Type             X           Y           Z
 ---------------------------------------------------------------------
      1          6           0       -3.126891   -0.440888    0.255118
      2          6           0       -0.684423   -0.239784   -1.165641
      3          1           0       -4.081225   -0.540147    0.759340
      4          1           0        0.279559   -0.151378   -1.650033
      5          6           0        1.137152    1.419764    0.752892
      6          6           0        0.684423    0.239784    1.165641
      7          1           0        0.543796    2.316608    0.882649
      8          1           0       -0.279559    0.151379    1.650033
      9          6           0        1.527143   -0.999005    1.070559
     10          1           0        2.027460   -1.119961    2.039740
     11          1           0        0.894773   -1.877853    0.948868
     12          6           0        2.443219    1.525992    0.104990
     13          1           0        2.846024    2.512508   -0.091240
     14          6           0        3.126891    0.440888   -0.255118
     15          1           0        4.081225    0.540147   -0.759340
     16          6           0        2.582831   -0.945113   -0.039623
     17          1           0        2.164096   -1.304863   -0.987620
     18          1           0        3.396382   -1.633179    0.198658
     19          6           0       -1.137152   -1.419764   -0.752892
     20          1           0       -0.543796   -2.316608   -0.882649
     21          6           0       -2.443219   -1.525992   -0.104990
     22          1           0       -2.846024   -2.512508    0.091240
     23          6           0       -1.527143    0.999005   -1.070559
     24          1           0       -0.894773    1.877853   -0.948868
     25          1           0       -2.027460    1.119961   -2.039740
     26          6           0       -2.582831    0.945113    0.039623
     27          1           0       -3.396382    1.633179   -0.198658
     28          1           0       -2.164097    1.304863    0.987620
 ---------------------------------------------------------------------

 SCF Done:  E(UwB97XD) =  -466.853138151     A.U. after   18 cycles

 Alpha  occ. eigenvalues --  -10.28590 -10.28590 -10.28295 -10.28294 -10.28275
 Alpha  occ. eigenvalues --  -10.28274 -10.28216 -10.28215 -10.28020 -10.28019
 Alpha  occ. eigenvalues --  -10.27482 -10.27481  -0.94363  -0.93582  -0.84490
 Alpha  occ. eigenvalues --   -0.84307  -0.83756  -0.83729  -0.71624  -0.71184
 Alpha  occ. eigenvalues --   -0.68158  -0.67955  -0.59865  -0.59729  -0.57500
 Alpha  occ. eigenvalues --   -0.56611  -0.53772  -0.52895  -0.51031  -0.51029
 Alpha  occ. eigenvalues --   -0.49918  -0.49322  -0.47534  -0.46928  -0.45498
 Alpha  occ. eigenvalues --   -0.45035  -0.41432  -0.41039  -0.39869  -0.39318
 Alpha  occ. eigenvalues --   -0.39251  -0.38913  -0.29980  -0.27291
 Alpha virt. eigenvalues --    0.03110   0.05347   0.10519   0.12315   0.13393
 Alpha virt. eigenvalues --    0.14537   0.14890   0.15694   0.15769   0.15843
 Alpha virt. eigenvalues --    0.16690   0.16946   0.17277   0.18221   0.19971

  Beta  occ. eigenvalues --  -10.28590 -10.28590 -10.28295 -10.28294 -10.28275
  Beta  occ. eigenvalues --  -10.28274 -10.28216 -10.28215 -10.28020 -10.28019
  Beta  occ. eigenvalues --  -10.27482 -10.27481  -0.94363  -0.93582  -0.84490
  Beta  occ. eigenvalues --   -0.84307  -0.83756  -0.83729  -0.71624  -0.71184
  Beta  occ. eigenvalues --   -0.68158  -0.67955  -0.59865  -0.59729  -0.57500
  Beta  occ. eigenvalues --   -0.56611  -0.53772  -0.52895  -0.51031  -0.51029
  Beta  occ. eigenvalues --   -0.49918  -0.49322  -0.47534  -0.46928  -0.45498
  Beta  occ. eigenvalues --   -0.45035  -0.41432  -0.41039  -0.39869  -0.39318
  Beta  occ. eigenvalues --   -0.39251  -0.38913  -0.29980  -0.27291
  Beta virt. eigenvalues --    0.03110   0.05347   0.10519   0.12315   0.13393
  Beta virt. eigenvalues --    0.14537   0.14890   0.15694   0.15769   0.15843
  Beta virt. eigenvalues --    0.16690   0.16946   0.17277   0.18221   0.19971

 Mulliken charges and spin densities:
               1          2
     1  C   -0.209237  -0.000000
     2  C   -0.188724   0.000000
     3  H    0.141699   0.000000
     4  H    0.165161  -0.000000
     5  C   -0.162783   0.000000
     6  C   -0.188420  -0.000000
     7  H    0.154277   0.000000
     8  H    0.165041   0.000000
     9  C   -0.209295  -0.000001
    10  H    0.119393   0.000000
    11  H    0.140025   0.000000
    12  C   -0.160973   0.000000
    13  H    0.145193  -0.000000
    14  C   -0.209191   0.000000
    15  H    0.141704  -0.000000
    16  C   -0.173232   0.000000
    17  H    0.112320  -0.000000
    18  H    0.125921  -0.000000
    19  C   -0.162593  -0.000000
    20  H    0.154340  -0.000000
    21  C   -0.160863   0.000000
    22  H    0.145166   0.000000
    23  C   -0.209352   0.000001
    24  H    0.140065  -0.000000
    25  H    0.119362  -0.000000
    26  C   -0.173280  -0.000000
    27  H    0.125928   0.000000
    28  H    0.112350   0.000000
 Sum of Mulliken charges =  -0.00000  -0.00000

 Dipole moment (field-independent basis, Debye):
    X=              0.0003    Y=              0.0003    Z=             -0.0001  Tot=              0.0004
 Quadrupole moment (field-independent basis, Debye-Ang):
   XX=            -72.2648   YY=            -69.8290   ZZ=            -77.1259
   XY=             -3.3264   XZ=             -3.5801   YZ=             -1.6966

 Normal termination of Gaussian 16 at Mon Aug  3 15:05:04 2020.
