 Gaussian 16, Revision B.01,
 Gaussian 16:  ES64L-G16RevB.01 20-Dec-2017

 ----------------------------------------------------------------------
 #p uwb97xd guess=mix def2tzvp # scrf=(iefpcm,solvent=Cyclohexane,read)
  nosym 6d 10f
 ----------------------------------------------------------------------

 -----------------------
 endo-2 xp-pcm for eta=3
 -----------------------
 Symbolic Z-matrix:
 Charge =  0 Multiplicity = 1

                          Input orientation:
 ---------------------------------------------------------------------
 Center     Atomic      Atomic             Coordinates (Angstroms)
 Number     Number       Type             X           Y           Z
 ---------------------------------------------------------------------
      1          6           0       -3.127383   -0.441200    0.256946
      2          6           0       -0.696508   -0.242696   -1.184341
      3          1           0       -4.079078   -0.538518    0.766502
      4          1           0        0.264362   -0.155913   -1.675481
      5          6           0        1.144636    1.421194    0.762509
      6          6           0        0.696508    0.242696    1.184341
      7          1           0        0.551234    2.317867    0.893879
      8          1           0       -0.264362    0.155913    1.675481
      9          6           0        1.535929   -0.997742    1.081645
     10          1           0        2.043151   -1.124317    2.046516
     11          1           0        0.898815   -1.873600    0.960552
     12          6           0        2.446597    1.527191    0.105512
     13          1           0        2.848349    2.513477   -0.093966
     14          6           0        3.127383    0.441200   -0.256946
     15          1           0        4.079078    0.538518   -0.766502
     16          6           0        2.581145   -0.943485   -0.038369
     17          1           0        2.150037   -1.298130   -0.982721
     18          1           0        3.394647   -1.635414    0.188466
     19          6           0       -1.144636   -1.421194   -0.762509
     20          1           0       -0.551234   -2.317867   -0.893879
     21          6           0       -2.446597   -1.527191   -0.105512
     22          1           0       -2.848349   -2.513477    0.093966
     23          6           0       -1.535929    0.997742   -1.081645
     24          1           0       -0.898815    1.873600   -0.960552
     25          1           0       -2.043151    1.124317   -2.046516
     26          6           0       -2.581145    0.943485    0.038369
     27          1           0       -3.394647    1.635414   -0.188467
     28          1           0       -2.150037    1.298130    0.982721
 ---------------------------------------------------------------------

 SCF Done:  E(UwB97XD) =  -466.854290223     A.U. after   18 cycles

 Alpha  occ. eigenvalues --  -10.28579 -10.28579 -10.28299 -10.28298 -10.28282
 Alpha  occ. eigenvalues --  -10.28282 -10.28214 -10.28212 -10.28020 -10.28019
 Alpha  occ. eigenvalues --  -10.27513 -10.27512  -0.94328  -0.93596  -0.84450
 Alpha  occ. eigenvalues --   -0.84286  -0.83787  -0.83733  -0.71597  -0.71200
 Alpha  occ. eigenvalues --   -0.68129  -0.67961  -0.59851  -0.59710  -0.57477
 Alpha  occ. eigenvalues --   -0.56633  -0.53761  -0.52879  -0.51031  -0.51019
 Alpha  occ. eigenvalues --   -0.49922  -0.49356  -0.47507  -0.46929  -0.45443
 Alpha  occ. eigenvalues --   -0.45054  -0.41412  -0.41043  -0.39851  -0.39328
 Alpha  occ. eigenvalues --   -0.39258  -0.38943  -0.29947  -0.27379
 Alpha virt. eigenvalues --    0.03197   0.05241   0.10519   0.12306   0.13382
 Alpha virt. eigenvalues --    0.14522   0.14882   0.15690   0.15734   0.15847
 Alpha virt. eigenvalues --    0.16709   0.16933   0.17248   0.18215   0.19969

  Beta  occ. eigenvalues --  -10.28579 -10.28579 -10.28299 -10.28298 -10.28282
  Beta  occ. eigenvalues --  -10.28282 -10.28214 -10.28212 -10.28020 -10.28019
  Beta  occ. eigenvalues --  -10.27513 -10.27512  -0.94328  -0.93596  -0.84450
  Beta  occ. eigenvalues --   -0.84286  -0.83787  -0.83733  -0.71597  -0.71200
  Beta  occ. eigenvalues --   -0.68129  -0.67961  -0.59851  -0.59710  -0.57477
  Beta  occ. eigenvalues --   -0.56633  -0.53761  -0.52879  -0.51031  -0.51019
  Beta  occ. eigenvalues --   -0.49922  -0.49356  -0.47507  -0.46929  -0.45443
  Beta  occ. eigenvalues --   -0.45054  -0.41412  -0.41043  -0.39851  -0.39328
  Beta  occ. eigenvalues --   -0.39258  -0.38943  -0.29947  -0.27379
  Beta virt. eigenvalues --    0.03197   0.05241   0.10519   0.12306   0.13382
  Beta virt. eigenvalues --    0.14522   0.14882   0.15690   0.15734   0.15847
  Beta virt. eigenvalues --    0.16709   0.16933   0.17248   0.18215   0.19969

 Mulliken charges and spin densities:
               1          2
     1  C   -0.209360   0.000001
     2  C   -0.187354  -0.000000
     3  H    0.141762  -0.000000
     4  H    0.164049   0.000000
     5  C   -0.164900   0.000000
     6  C   -0.186990  -0.000000
     7  H    0.154379  -0.000000
     8  H    0.163922   0.000000
     9  C   -0.206853   0.000001
    10  H    0.119220  -0.000000
    11  H    0.138990  -0.000000
    12  C   -0.159907  -0.000000
    13  H    0.145294   0.000000
    14  C   -0.209289  -0.000000
    15  H    0.141766   0.000000
    16  C   -0.173475  -0.000000
    17  H    0.111995   0.000000
    18  H    0.125836   0.000000
    19  C   -0.164696   0.000000
    20  H    0.154451   0.000000
    21  C   -0.159755  -0.000000
    22  H    0.145263  -0.000000
    23  C   -0.206906  -0.000001
    24  H    0.139050   0.000000
    25  H    0.119178   0.000000
    26  C   -0.173512   0.000000
    27  H    0.125850  -0.000000
    28  H    0.111996  -0.000000
 Sum of Mulliken charges =  -0.00000  -0.00000

 Dipole moment (field-independent basis, Debye):
    X=              0.0002    Y=              0.0000    Z=             -0.0000  Tot=              0.0002
 Quadrupole moment (field-independent basis, Debye-Ang):
   XX=            -72.2953   YY=            -69.8266   ZZ=            -77.0763
   XY=             -3.3192   XZ=             -3.6269   YZ=             -1.7053

 Normal termination of Gaussian 16 at Mon Aug  3 14:59:42 2020.
