 Gaussian 16, Revision B.01,

 ----------------------------------------------------------------------
 #p uwb97xd guess=mix def2tzvp # scrf=(iefpcm,solvent=Cyclohexane,read)
  nosym 6d 10f
 ----------------------------------------------------------------------

 -----------------------
 endo-2 xp-pcm for eta=3
 -----------------------
 Symbolic Z-matrix:
 Charge =  0 Multiplicity = 1

 SCF Done:  E(UwB97XD) =  -466.806152034     A.U. after   17 cycles
 Normal termination of Gaussian 16 at Tue Aug  4 15:13:32 2020.

 ----------------------------------------------------------------------
 #p uwb97xd guess=mix def2tzvp # scrf=(iefpcm,solvent=Cyclohexane,read)
  nosym 6d 10f
 ----------------------------------------------------------------------

 -----------------------
 endo-2 xp-pcm for eta=3
 -----------------------
 Symbolic Z-matrix:
 Charge =  0 Multiplicity = 1

 SCF Done:  E(UwB97XD) =  -466.802881056     A.U. after   17 cycles
 Normal termination of Gaussian 16 at Tue Aug  4 15:19:04 2020.

 ----------------------------------------------------------------------
 #p uwb97xd guess=mix def2tzvp # scrf=(iefpcm,solvent=Cyclohexane,read)
  nosym 6d 10f
 ----------------------------------------------------------------------

 -----------------------
 endo-2 xp-pcm for eta=3
 -----------------------
 Symbolic Z-matrix:
 Charge =  0 Multiplicity = 1

 SCF Done:  E(UwB97XD) =  -466.798871063     A.U. after   17 cycles
 Normal termination of Gaussian 16 at Tue Aug  4 15:24:32 2020.

 ----------------------------------------------------------------------
 #p uwb97xd guess=mix def2tzvp # scrf=(iefpcm,solvent=Cyclohexane,read)
  nosym 6d 10f
 ----------------------------------------------------------------------

 -----------------------
 endo-2 xp-pcm for eta=3
 -----------------------
 Symbolic Z-matrix:
 Charge =  0 Multiplicity = 1

 SCF Done:  E(UwB97XD) =  -466.789976639     A.U. after   16 cycles
 Normal termination of Gaussian 16 at Tue Aug  4 15:29:45 2020.

 ----------------------------------------------------------------------
 #p uwb97xd guess=mix def2tzvp # scrf=(iefpcm,solvent=Cyclohexane,read)
  nosym 6d 10f
 ----------------------------------------------------------------------

 -----------------------
 endo-2 xp-pcm for eta=3
 -----------------------
 Symbolic Z-matrix:
 Charge =  0 Multiplicity = 1

 SCF Done:  E(UwB97XD) =  -466.781830652     A.U. after   16 cycles
 Normal termination of Gaussian 16 at Tue Aug  4 15:34:58 2020.

 ----------------------------------------------------------------------
 #p uwb97xd guess=mix def2tzvp # scrf=(iefpcm,solvent=Cyclohexane,read)
  nosym 6d 10f
 ----------------------------------------------------------------------

 -----------------------
 endo-2 xp-pcm for eta=3
 -----------------------
 Symbolic Z-matrix:
 Charge =  0 Multiplicity = 1

 SCF Done:  E(UwB97XD) =  -466.775311404     A.U. after   16 cycles
 Normal termination of Gaussian 16 at Tue Aug  4 15:40:11 2020.
 Gaussian 16:  ES64L-G16RevB.01 20-Dec-2017

                          Input orientation:
 ---------------------------------------------------------------------
 Center     Atomic      Atomic             Coordinates (Angstroms)
 Number     Number       Type             X           Y           Z
 ---------------------------------------------------------------------
      1          6           0       -3.118978   -0.431679    0.247428
      2          6           0       -0.498946   -0.160979   -0.842137
      3          1           0       -4.084002   -0.548806    0.725908
      4          1           0        0.353974   -0.115713   -1.511513
      5          6           0        1.104740    1.419096    0.680914
      6          6           0        0.498946    0.160979    0.842137
      7          1           0        0.544380    2.322265    0.886395
      8          1           0       -0.353974    0.115713    1.511513
      9          6           0        1.462618   -0.999815    0.987483
     10          1           0        1.898715   -0.937376    1.990350
     11          1           0        0.929624   -1.949747    0.936184
     12          6           0        2.406372    1.522548    0.118104
     13          1           0        2.824451    2.509227   -0.045547
     14          6           0        3.118978    0.431679   -0.247428
     15          1           0        4.084002    0.548806   -0.725908
     16          6           0        2.592276   -0.958579   -0.043389
     17          1           0        2.248579   -1.357021   -1.006512
     18          1           0        3.401237   -1.622533    0.271000
     19          6           0       -1.104740   -1.419096   -0.680914
     20          1           0       -0.544380   -2.322265   -0.886395
     21          6           0       -2.406372   -1.522548   -0.118104
     22          1           0       -2.824451   -2.509227    0.045547
     23          6           0       -1.462618    0.999815   -0.987483
     24          1           0       -0.929624    1.949747   -0.936184
     25          1           0       -1.898715    0.937376   -1.990350
     26          6           0       -2.592276    0.958579    0.043389
     27          1           0       -3.401236    1.622533   -0.271000
     28          1           0       -2.248578    1.357021    1.006512
 ---------------------------------------------------------------------

 SCF Done:  E(UwB97XD) =  -466.767744904     A.U. after   16 cycles

 Alpha  occ. eigenvalues --  -10.28717 -10.28358 -10.27367 -10.27292 -10.27257
 Alpha  occ. eigenvalues --  -10.26986 -10.26956 -10.26904 -10.26878 -10.26874
 Alpha  occ. eigenvalues --  -10.26676 -10.26391  -0.93905  -0.92120  -0.84052
 Alpha  occ. eigenvalues --   -0.83417  -0.82596  -0.81386  -0.70261  -0.69230
 Alpha  occ. eigenvalues --   -0.68384  -0.66818  -0.58977  -0.58444  -0.57183
 Alpha  occ. eigenvalues --   -0.55317  -0.52309  -0.52048  -0.49814  -0.48967
 Alpha  occ. eigenvalues --   -0.48264  -0.47131  -0.46841  -0.46302  -0.45404
 Alpha  occ. eigenvalues --   -0.43637  -0.40396  -0.39980  -0.38797  -0.38594
 Alpha  occ. eigenvalues --   -0.38016  -0.36478  -0.31173  -0.23213
 Alpha virt. eigenvalues --    0.00802   0.10122   0.13368   0.15498   0.15823
 Alpha virt. eigenvalues --    0.16363   0.17690   0.18553   0.19081   0.19416
 Alpha virt. eigenvalues --    0.19444   0.20276   0.20960   0.21800   0.23090

  Beta  occ. eigenvalues --  -10.28715 -10.28360 -10.27368 -10.27293 -10.27256
  Beta  occ. eigenvalues --  -10.26988 -10.26955 -10.26906 -10.26876 -10.26873
  Beta  occ. eigenvalues --  -10.26677 -10.26389  -0.93905  -0.92120  -0.84052
  Beta  occ. eigenvalues --   -0.83417  -0.82596  -0.81386  -0.70262  -0.69230
  Beta  occ. eigenvalues --   -0.68384  -0.66818  -0.58977  -0.58444  -0.57183
  Beta  occ. eigenvalues --   -0.55317  -0.52309  -0.52048  -0.49814  -0.48967
  Beta  occ. eigenvalues --   -0.48264  -0.47131  -0.46841  -0.46302  -0.45404
  Beta  occ. eigenvalues --   -0.43637  -0.40396  -0.39980  -0.38798  -0.38594
  Beta  occ. eigenvalues --   -0.38016  -0.36479  -0.31173  -0.23213
  Beta virt. eigenvalues --    0.00802   0.10123   0.13368   0.15498   0.15824
  Beta virt. eigenvalues --    0.16363   0.17690   0.18554   0.19081   0.19415
  Beta virt. eigenvalues --    0.19447   0.20275   0.20961   0.21800   0.23088

 Mulliken charges and spin densities:
               1          2
     1  C   -0.201464   0.386461
     2  C   -0.198342  -0.219473
     3  H    0.149458  -0.015879
     4  H    0.173558   0.013029
     5  C   -0.174673  -0.494193
     6  C   -0.196261   0.219502
     7  H    0.164788   0.020053
     8  H    0.172806  -0.013027
     9  C   -0.243142  -0.010354
    10  H    0.133984   0.006602
    11  H    0.150792   0.002740
    12  C   -0.171715   0.187274
    13  H    0.149622  -0.007237
    14  C   -0.201226  -0.386462
    15  H    0.149502   0.015876
    16  C   -0.196949   0.025348
    17  H    0.126813  -0.021202
    18  H    0.135566  -0.009489
    19  C   -0.171885   0.494226
    20  H    0.164269  -0.020062
    21  C   -0.172355  -0.187301
    22  H    0.149491   0.007237
    23  C   -0.239799   0.010324
    24  H    0.150691  -0.002748
    25  H    0.132827  -0.006593
    26  C   -0.198730  -0.025353
    27  H    0.135628   0.009492
    28  H    0.126747   0.021210
 Sum of Mulliken charges =  -0.00000  -0.00000

 Dipole moment (field-independent basis, Debye):
    X=             -0.0009    Y=             -0.0026    Z=             -0.0058  Tot=              0.0065
 Quadrupole moment (field-independent basis, Debye-Ang):
   XX=            -70.3792   YY=            -69.0509   ZZ=            -75.0818
   XY=             -3.0013   XZ=             -3.1441   YZ=             -0.6985

 Normal termination of Gaussian 16 at Tue Aug  4 15:45:26 2020.
