 Gaussian 16, Revision B.01,
 Gaussian 16:  ES64L-G16RevB.01 20-Dec-2017

 ----------------------------------------------------------------------
 #p uwb97xd guess=mix def2tzvp # scrf=(iefpcm,solvent=Cyclohexane,read)
  nosym 6d 10f
 ----------------------------------------------------------------------

 -----------------------
 endo-2 xp-pcm for eta=3
 -----------------------
 Symbolic Z-matrix:
 Charge =  0 Multiplicity = 1

                          Input orientation:
 ---------------------------------------------------------------------
 Center     Atomic      Atomic             Coordinates (Angstroms)
 Number     Number       Type             X           Y           Z
 ---------------------------------------------------------------------
      1          6           0       -3.120053   -0.437296    0.247601
      2          6           0       -0.582765   -0.208122   -0.986031
      3          1           0       -4.084035   -0.549421    0.730161
      4          1           0        0.376360   -0.119236   -1.476138
      5          6           0        1.092928    1.407235    0.695695
      6          6           0        0.582765    0.208122    0.986031
      7          1           0        0.514464    2.309116    0.849982
      8          1           0       -0.376360    0.119237    1.476138
      9          6           0        1.473441   -0.999882    0.998114
     10          1           0        1.930236   -1.007810    1.995578
     11          1           0        0.900886   -1.922279    0.917856
     12          6           0        2.421602    1.516304    0.111065
     13          1           0        2.830156    2.505119   -0.060741
     14          6           0        3.120053    0.437296   -0.247601
     15          1           0        4.084035    0.549421   -0.730161
     16          6           0        2.591259   -0.956820   -0.045733
     17          1           0        2.248403   -1.352514   -1.009798
     18          1           0        3.400569   -1.620098    0.266906
     19          6           0       -1.092928   -1.407235   -0.695695
     20          1           0       -0.514464   -2.309116   -0.849982
     21          6           0       -2.421602   -1.516304   -0.111065
     22          1           0       -2.830156   -2.505120    0.060741
     23          6           0       -1.473441    0.999882   -0.998114
     24          1           0       -0.900886    1.922279   -0.917856
     25          1           0       -1.930236    1.007810   -1.995578
     26          6           0       -2.591259    0.956820    0.045733
     27          1           0       -3.400569    1.620098   -0.266906
     28          1           0       -2.248403    1.352515    1.009798
 ---------------------------------------------------------------------

 SCF Done:  E(UwB97XD) =  -466.835664017     A.U. after   19 cycles

 Alpha  occ. eigenvalues --  -10.28629 -10.28628 -10.28472 -10.28472 -10.28260
 Alpha  occ. eigenvalues --  -10.28260 -10.28207 -10.28207 -10.28015 -10.28015
 Alpha  occ. eigenvalues --  -10.27187 -10.27186  -0.94864  -0.93524  -0.84981
 Alpha  occ. eigenvalues --   -0.84441  -0.83690  -0.83417  -0.71741  -0.70946
 Alpha  occ. eigenvalues --   -0.68614  -0.67852  -0.60038  -0.59951  -0.57865
 Alpha  occ. eigenvalues --   -0.56414  -0.53599  -0.53132  -0.51142  -0.50858
 Alpha  occ. eigenvalues --   -0.49912  -0.49000  -0.47751  -0.47046  -0.46105
 Alpha  occ. eigenvalues --   -0.44827  -0.41584  -0.41046  -0.39976  -0.39308
 Alpha  occ. eigenvalues --   -0.39160  -0.38473  -0.30650  -0.25869
 Alpha virt. eigenvalues --    0.01675   0.06859   0.10470   0.12389   0.13432
 Alpha virt. eigenvalues --    0.14532   0.14798   0.15618   0.15827   0.16208
 Alpha virt. eigenvalues --    0.16496   0.17439   0.17463   0.18497   0.19922

  Beta  occ. eigenvalues --  -10.28629 -10.28628 -10.28472 -10.28472 -10.28260
  Beta  occ. eigenvalues --  -10.28260 -10.28207 -10.28207 -10.28015 -10.28015
  Beta  occ. eigenvalues --  -10.27187 -10.27186  -0.94864  -0.93524  -0.84981
  Beta  occ. eigenvalues --   -0.84441  -0.83690  -0.83417  -0.71741  -0.70946
  Beta  occ. eigenvalues --   -0.68614  -0.67852  -0.60038  -0.59951  -0.57865
  Beta  occ. eigenvalues --   -0.56414  -0.53599  -0.53132  -0.51142  -0.50858
  Beta  occ. eigenvalues --   -0.49912  -0.49000  -0.47751  -0.47046  -0.46105
  Beta  occ. eigenvalues --   -0.44827  -0.41584  -0.41046  -0.39976  -0.39308
  Beta  occ. eigenvalues --   -0.39160  -0.38473  -0.30650  -0.25869
  Beta virt. eigenvalues --    0.01675   0.06859   0.10470   0.12389   0.13432
  Beta virt. eigenvalues --    0.14532   0.14798   0.15618   0.15827   0.16208
  Beta virt. eigenvalues --    0.16496   0.17439   0.17463   0.18497   0.19922

 Mulliken charges and spin densities:
               1          2
     1  C   -0.209258   0.000000
     2  C   -0.202124   0.000000
     3  H    0.141697  -0.000000
     4  H    0.174408   0.000000
     5  C   -0.144063   0.000001
     6  C   -0.202234  -0.000000
     7  H    0.152318   0.000000
     8  H    0.174390  -0.000000
     9  C   -0.208304  -0.000000
    10  H    0.120823   0.000000
    11  H    0.144057  -0.000000
    12  C   -0.176563   0.000001
    13  H    0.144533  -0.000000
    14  C   -0.209386  -0.000000
    15  H    0.141698   0.000000
    16  C   -0.180230  -0.000000
    17  H    0.115889   0.000000
    18  H    0.127069  -0.000000
    19  C   -0.144167  -0.000001
    20  H    0.152335  -0.000000
    21  C   -0.176728  -0.000000
    22  H    0.144565   0.000000
    23  C   -0.208298   0.000000
    24  H    0.144066   0.000000
    25  H    0.120814  -0.000000
    26  C   -0.180290   0.000000
    27  H    0.127081   0.000000
    28  H    0.115902  -0.000000
 Sum of Mulliken charges =  -0.00000  -0.00000

 Dipole moment (field-independent basis, Debye):
    X=              0.0002    Y=             -0.0008    Z=             -0.0003  Tot=              0.0008
 Quadrupole moment (field-independent basis, Debye-Ang):
   XX=            -72.3682   YY=            -69.9857   ZZ=            -77.1211
   XY=             -3.3013   XZ=             -3.2317   YZ=             -1.3954

 Normal termination of Gaussian 16 at Mon Aug  3 15:48:50 2020.
