 Gaussian 16, Revision B.01,
 Gaussian 16:  ES64L-G16RevB.01 20-Dec-2017

 ----------------------------------------------------------------------
 #p uwb97xd guess=mix def2tzvp # scrf=(iefpcm,solvent=Cyclohexane,read)
  nosym 6d 10f
 ----------------------------------------------------------------------

 -----------------------
 endo-2 xp-pcm for eta=3
 -----------------------
 Symbolic Z-matrix:
 Charge =  0 Multiplicity = 1

                          Input orientation:
 ---------------------------------------------------------------------
 Center     Atomic      Atomic             Coordinates (Angstroms)
 Number     Number       Type             X           Y           Z
 ---------------------------------------------------------------------
      1          6           0       -3.119623   -0.428287    0.247977
      2          6           0       -0.467744   -0.142247   -0.792389
      3          1           0       -4.085353   -0.547852    0.723900
      4          1           0        0.337990   -0.113517   -1.523464
      5          6           0        1.112786    1.427748    0.675736
      6          6           0        0.467744    0.142247    0.792389
      7          1           0        0.556231    2.329182    0.898405
      8          1           0       -0.337990    0.113517    1.523464
      9          6           0        1.459612   -0.999280    0.985076
     10          1           0        1.889507   -0.917784    1.988422
     11          1           0        0.939242   -1.957153    0.942698
     12          6           0        2.400074    1.526641    0.121689
     13          1           0        2.824822    2.511480   -0.037221
     14          6           0        3.119623    0.428287   -0.247977
     15          1           0        4.085353    0.547852   -0.723900
     16          6           0        2.592636   -0.958956   -0.042799
     17          1           0        2.246423   -1.357949   -1.005214
     18          1           0        3.401580   -1.623929    0.270629
     19          6           0       -1.112786   -1.427748   -0.675736
     20          1           0       -0.556231   -2.329182   -0.898405
     21          6           0       -2.400074   -1.526641   -0.121689
     22          1           0       -2.824822   -2.511480    0.037221
     23          6           0       -1.459612    0.999279   -0.985076
     24          1           0       -0.939242    1.957153   -0.942698
     25          1           0       -1.889507    0.917784   -1.988422
     26          6           0       -2.592636    0.958956    0.042799
     27          1           0       -3.401580    1.623929   -0.270628
     28          1           0       -2.246422    1.357949    1.005214
 ---------------------------------------------------------------------

 SCF Done:  E(UwB97XD) =  -466.821163706     A.U. after   16 cycles

 Alpha  occ. eigenvalues --  -10.29981 -10.29714 -10.28742 -10.28480 -10.28460
 Alpha  occ. eigenvalues --  -10.28438 -10.28199 -10.28121 -10.28023 -10.27998
 Alpha  occ. eigenvalues --  -10.27892 -10.27760  -0.94951  -0.92972  -0.85144
 Alpha  occ. eigenvalues --   -0.84508  -0.83631  -0.81898  -0.71133  -0.70162
 Alpha  occ. eigenvalues --   -0.69594  -0.67799  -0.59978  -0.59296  -0.58393
 Alpha  occ. eigenvalues --   -0.56351  -0.53439  -0.52933  -0.50767  -0.49655
 Alpha  occ. eigenvalues --   -0.49054  -0.48162  -0.47844  -0.47427  -0.46548
 Alpha  occ. eigenvalues --   -0.44732  -0.41515  -0.40925  -0.39891  -0.39661
 Alpha  occ. eigenvalues --   -0.38719  -0.37208  -0.33108  -0.24678
 Alpha virt. eigenvalues --   -0.00177   0.09569   0.10479   0.12531   0.13105
 Alpha virt. eigenvalues --    0.14109   0.14565   0.15454   0.16010   0.16296
 Alpha virt. eigenvalues --    0.16750   0.17086   0.18305   0.19860   0.20501

  Beta  occ. eigenvalues --  -10.29982 -10.29714 -10.28741 -10.28479 -10.28459
  Beta  occ. eigenvalues --  -10.28439 -10.28200 -10.28122 -10.28023 -10.27998
  Beta  occ. eigenvalues --  -10.27891 -10.27761  -0.94951  -0.92972  -0.85144
  Beta  occ. eigenvalues --   -0.84508  -0.83631  -0.81898  -0.71133  -0.70162
  Beta  occ. eigenvalues --   -0.69594  -0.67799  -0.59978  -0.59296  -0.58393
  Beta  occ. eigenvalues --   -0.56351  -0.53440  -0.52933  -0.50767  -0.49655
  Beta  occ. eigenvalues --   -0.49054  -0.48162  -0.47845  -0.47427  -0.46548
  Beta  occ. eigenvalues --   -0.44732  -0.41515  -0.40926  -0.39891  -0.39661
  Beta  occ. eigenvalues --   -0.38718  -0.37209  -0.33108  -0.24678
  Beta virt. eigenvalues --   -0.00178   0.09570   0.10479   0.12531   0.13105
  Beta virt. eigenvalues --    0.14109   0.14565   0.15454   0.16010   0.16296
  Beta virt. eigenvalues --    0.16750   0.17086   0.18305   0.19860   0.20501

 Mulliken charges and spin densities:
               1          2
     1  C   -0.203324  -0.508737
     2  C   -0.149856   0.148990
     3  H    0.144530   0.021343
     4  H    0.143236  -0.011244
     5  C   -0.169506   0.590891
     6  C   -0.149912  -0.148983
     7  H    0.156822  -0.024504
     8  H    0.143235   0.011245
     9  C   -0.213288   0.011291
    10  H    0.118613  -0.003151
    11  H    0.135630  -0.002283
    12  C   -0.170934  -0.218525
    13  H    0.143101   0.008661
    14  C   -0.203330   0.508731
    15  H    0.144531  -0.021342
    16  C   -0.179409  -0.032483
    17  H    0.117105   0.028059
    18  H    0.127268   0.012174
    19  C   -0.169616  -0.590891
    20  H    0.156995   0.024500
    21  C   -0.170805   0.218525
    22  H    0.143094  -0.008661
    23  C   -0.213326  -0.011288
    24  H    0.135634   0.002282
    25  H    0.118616   0.003151
    26  C   -0.179348   0.032484
    27  H    0.127294  -0.012173
    28  H    0.116949  -0.028062
 Sum of Mulliken charges =  -0.00000   0.00000

 Dipole moment (field-independent basis, Debye):
    X=              0.0002    Y=             -0.0011    Z=             -0.0005  Tot=              0.0012
 Quadrupole moment (field-independent basis, Debye-Ang):
   XX=            -72.2998   YY=            -71.0215   ZZ=            -76.4030
   XY=             -2.7804   XZ=             -3.0913   YZ=             -0.5011

 Normal termination of Gaussian 16 at Mon Aug  3 16:40:10 2020.
