 Gaussian 16, Revision B.01,

 ----------------------------------------------------------------------
 #p uwb97xd guess=mix def2tzvp # scrf=(iefpcm,solvent=Cyclohexane,read)
  nosym 6d 10f
 ----------------------------------------------------------------------

 -----------------------
 endo-2 xp-pcm for eta=3
 -----------------------
 Symbolic Z-matrix:
 Charge =  0 Multiplicity = 1

 SCF Done:  E(UwB97XD) =  -466.825833630     A.U. after   14 cycles
 Normal termination of Gaussian 16 at Tue Aug  4 18:48:55 2020.

 ----------------------------------------------------------------------
 #p uwb97xd guess=mix def2tzvp # scrf=(iefpcm,solvent=Cyclohexane,read)
  nosym 6d 10f
 ----------------------------------------------------------------------

 -----------------------
 endo-2 xp-pcm for eta=3
 -----------------------
 Symbolic Z-matrix:
 Charge =  0 Multiplicity = 1

 SCF Done:  E(UwB97XD) =  -466.822499608     A.U. after   14 cycles
 Normal termination of Gaussian 16 at Tue Aug  4 18:53:32 2020.

 ----------------------------------------------------------------------
 #p uwb97xd guess=mix def2tzvp # scrf=(iefpcm,solvent=Cyclohexane,read)
  nosym 6d 10f
 ----------------------------------------------------------------------

 -----------------------
 endo-2 xp-pcm for eta=3
 -----------------------
 Symbolic Z-matrix:
 Charge =  0 Multiplicity = 1

 SCF Done:  E(UwB97XD) =  -466.818689010     A.U. after   14 cycles
 Normal termination of Gaussian 16 at Tue Aug  4 18:58:06 2020.

 ----------------------------------------------------------------------
 #p uwb97xd guess=mix def2tzvp # scrf=(iefpcm,solvent=Cyclohexane,read)
  nosym 6d 10f
 ----------------------------------------------------------------------

 -----------------------
 endo-2 xp-pcm for eta=3
 -----------------------
 Symbolic Z-matrix:
 Charge =  0 Multiplicity = 1

 SCF Done:  E(UwB97XD) =  -466.811217077     A.U. after   14 cycles
 Normal termination of Gaussian 16 at Tue Aug  4 19:02:53 2020.

 ----------------------------------------------------------------------
 #p uwb97xd guess=mix def2tzvp # scrf=(iefpcm,solvent=Cyclohexane,read)
  nosym 6d 10f
 ----------------------------------------------------------------------

 -----------------------
 endo-2 xp-pcm for eta=3
 -----------------------
 Symbolic Z-matrix:
 Charge =  0 Multiplicity = 1

 SCF Done:  E(UwB97XD) =  -466.801375534     A.U. after   14 cycles
 Normal termination of Gaussian 16 at Tue Aug  4 19:07:32 2020.

 ----------------------------------------------------------------------
 #p uwb97xd guess=mix def2tzvp # scrf=(iefpcm,solvent=Cyclohexane,read)
  nosym 6d 10f
 ----------------------------------------------------------------------

 -----------------------
 endo-2 xp-pcm for eta=3
 -----------------------
 Symbolic Z-matrix:
 Charge =  0 Multiplicity = 1

 SCF Done:  E(UwB97XD) =  -466.795250109     A.U. after   14 cycles
 Normal termination of Gaussian 16 at Tue Aug  4 19:12:10 2020.
 Gaussian 16:  ES64L-G16RevB.01 20-Dec-2017

                          Input orientation:
 ---------------------------------------------------------------------
 Center     Atomic      Atomic             Coordinates (Angstroms)
 Number     Number       Type             X           Y           Z
 ---------------------------------------------------------------------
      1          6           0       -3.119127   -0.424214    0.248750
      2          6           0       -0.411716   -0.117621   -0.690842
      3          1           0       -4.089584   -0.546101    0.713998
      4          1           0        0.331104   -0.106248   -1.492216
      5          6           0        1.113220    1.433745    0.656146
      6          6           0        0.411716    0.117621    0.690842
      7          1           0        0.575541    2.332289    0.931979
      8          1           0       -0.331104    0.106248    1.492216
      9          6           0        1.443013   -0.993893    0.965601
     10          1           0        1.846597   -0.847218    1.971019
     11          1           0        0.957769   -1.971415    0.956603
     12          6           0        2.393256    1.531202    0.129580
     13          1           0        2.834891    2.513727    0.002918
     14          6           0        3.119127    0.424214   -0.248750
     15          1           0        4.089584    0.546101   -0.713998
     16          6           0        2.592435   -0.960873   -0.043075
     17          1           0        2.254014   -1.365839   -1.006400
     18          1           0        3.399024   -1.624515    0.280295
     19          6           0       -1.113220   -1.433745   -0.656146
     20          1           0       -0.575541   -2.332289   -0.931979
     21          6           0       -2.393256   -1.531202   -0.129580
     22          1           0       -2.834891   -2.513727   -0.002918
     23          6           0       -1.443013    0.993893   -0.965601
     24          1           0       -0.957769    1.971415   -0.956603
     25          1           0       -1.846597    0.847218   -1.971019
     26          6           0       -2.592435    0.960873    0.043075
     27          1           0       -3.399023    1.624515   -0.280295
     28          1           0       -2.254014    1.365839    1.006400
 ---------------------------------------------------------------------

 SCF Done:  E(UwB97XD) =  -466.787131427     A.U. after   14 cycles

 Alpha  occ. eigenvalues --  -10.28287 -10.28151 -10.27623 -10.27405 -10.27210
 Alpha  occ. eigenvalues --  -10.27160 -10.26994 -10.26912 -10.26722 -10.26703
 Alpha  occ. eigenvalues --  -10.26677 -10.26674  -0.94238  -0.91649  -0.84690
 Alpha  occ. eigenvalues --   -0.83505  -0.82525  -0.80032  -0.70289  -0.69585
 Alpha  occ. eigenvalues --   -0.68193  -0.66535  -0.59023  -0.58206  -0.57645
 Alpha  occ. eigenvalues --   -0.55217  -0.52549  -0.51587  -0.49762  -0.48011
 Alpha  occ. eigenvalues --   -0.47816  -0.47419  -0.47117  -0.46246  -0.44997
 Alpha  occ. eigenvalues --   -0.43689  -0.40430  -0.39841  -0.38978  -0.37972
 Alpha  occ. eigenvalues --   -0.36742  -0.36231  -0.33566  -0.24203
 Alpha virt. eigenvalues --    0.01338   0.11808   0.13479   0.15342   0.15586
 Alpha virt. eigenvalues --    0.16655   0.17715   0.18457   0.19148   0.19431
 Alpha virt. eigenvalues --    0.19919   0.20277   0.21476   0.23025   0.23133

  Beta  occ. eigenvalues --  -10.28289 -10.28149 -10.27623 -10.27406 -10.27206
  Beta  occ. eigenvalues --  -10.27163 -10.26994 -10.26912 -10.26722 -10.26703
  Beta  occ. eigenvalues --  -10.26678 -10.26673  -0.94238  -0.91649  -0.84691
  Beta  occ. eigenvalues --   -0.83505  -0.82525  -0.80032  -0.70289  -0.69586
  Beta  occ. eigenvalues --   -0.68193  -0.66535  -0.59023  -0.58206  -0.57645
  Beta  occ. eigenvalues --   -0.55217  -0.52549  -0.51586  -0.49762  -0.48012
  Beta  occ. eigenvalues --   -0.47816  -0.47419  -0.47116  -0.46246  -0.44997
  Beta  occ. eigenvalues --   -0.43688  -0.40429  -0.39841  -0.38978  -0.37972
  Beta  occ. eigenvalues --   -0.36742  -0.36231  -0.33567  -0.24204
  Beta virt. eigenvalues --    0.01340   0.11808   0.13480   0.15339   0.15590
  Beta virt. eigenvalues --    0.16654   0.17715   0.18457   0.19148   0.19430
  Beta virt. eigenvalues --    0.19922   0.20274   0.21476   0.23026   0.23131

 Mulliken charges and spin densities:
               1          2
     1  C   -0.192032  -0.586664
     2  C   -0.154923   0.060828
     3  H    0.150534   0.024031
     4  H    0.156379  -0.008587
     5  C   -0.211846   0.618155
     6  C   -0.152950  -0.060782
     7  H    0.168387  -0.025001
     8  H    0.154180   0.008585
     9  C   -0.253640   0.010363
    10  H    0.135190  -0.000251
    11  H    0.148756  -0.000073
    12  C   -0.159475  -0.223854
    13  H    0.147823   0.009215
    14  C   -0.191927   0.586584
    15  H    0.150549  -0.024027
    16  C   -0.196269  -0.035362
    17  H    0.125742   0.033290
    18  H    0.135960   0.014209
    19  C   -0.212551  -0.618132
    20  H    0.168945   0.024975
    21  C   -0.159205   0.223885
    22  H    0.147846  -0.009215
    23  C   -0.253325  -0.010353
    24  H    0.148820   0.000079
    25  H    0.134733   0.000251
    26  C   -0.197538   0.035376
    27  H    0.136043  -0.014214
    28  H    0.125793  -0.033314
 Sum of Mulliken charges =  -0.00000   0.00000

 Dipole moment (field-independent basis, Debye):
    X=             -0.0008    Y=             -0.0004    Z=             -0.0019  Tot=              0.0021
 Quadrupole moment (field-independent basis, Debye-Ang):
   XX=            -69.8379   YY=            -69.5599   ZZ=            -74.8637
   XY=             -2.4755   XZ=             -2.8534   YZ=             -0.0889

 Normal termination of Gaussian 16 at Tue Aug  4 19:16:45 2020.
