 Gaussian 16, Revision B.01,

 ----------------------------------------------------------------------
 #p uwb97xd guess=mix def2tzvp # scrf=(iefpcm,solvent=Cyclohexane,read)
  nosym 6d 10f
 ----------------------------------------------------------------------

 -----------------------
 endo-2 xp-pcm for eta=3
 -----------------------
 Symbolic Z-matrix:
 Charge =  0 Multiplicity = 1

 SCF Done:  E(UwB97XD) =  -466.849826204     A.U. after   17 cycles
 Normal termination of Gaussian 16 at Mon Aug  3 23:32:54 2020.

 ----------------------------------------------------------------------
 #p uwb97xd guess=mix def2tzvp # scrf=(iefpcm,solvent=Cyclohexane,read)
  nosym 6d 10f
 ----------------------------------------------------------------------

 -----------------------
 endo-2 xp-pcm for eta=3
 -----------------------
 Symbolic Z-matrix:
 Charge =  0 Multiplicity = 1

 SCF Done:  E(UwB97XD) =  -466.845800526     A.U. after   17 cycles
 Normal termination of Gaussian 16 at Mon Aug  3 23:38:14 2020.

 ----------------------------------------------------------------------
 #p uwb97xd guess=mix def2tzvp # scrf=(iefpcm,solvent=Cyclohexane,read)
  nosym 6d 10f
 ----------------------------------------------------------------------

 -----------------------
 endo-2 xp-pcm for eta=3
 -----------------------
 Symbolic Z-matrix:
 Charge =  0 Multiplicity = 1

 SCF Done:  E(UwB97XD) =  -466.841326773     A.U. after   17 cycles
 Normal termination of Gaussian 16 at Mon Aug  3 23:43:31 2020.

 ----------------------------------------------------------------------
 #p uwb97xd guess=mix def2tzvp # scrf=(iefpcm,solvent=Cyclohexane,read)
  nosym 6d 10f
 ----------------------------------------------------------------------

 -----------------------
 endo-2 xp-pcm for eta=3
 -----------------------
 Symbolic Z-matrix:
 Charge =  0 Multiplicity = 1

 SCF Done:  E(UwB97XD) =  -466.835154542     A.U. after   17 cycles
 Normal termination of Gaussian 16 at Mon Aug  3 23:48:50 2020.

 ----------------------------------------------------------------------
 #p uwb97xd guess=mix def2tzvp # scrf=(iefpcm,solvent=Cyclohexane,read)
  nosym 6d 10f
 ----------------------------------------------------------------------

 -----------------------
 endo-2 xp-pcm for eta=3
 -----------------------
 Symbolic Z-matrix:
 Charge =  0 Multiplicity = 1

 SCF Done:  E(UwB97XD) =  -466.824544916     A.U. after   17 cycles
 Normal termination of Gaussian 16 at Mon Aug  3 23:54:08 2020.

 ----------------------------------------------------------------------
 #p uwb97xd guess=mix def2tzvp # scrf=(iefpcm,solvent=Cyclohexane,read)
  nosym 6d 10f
 ----------------------------------------------------------------------

 -----------------------
 endo-2 xp-pcm for eta=3
 -----------------------
 Symbolic Z-matrix:
 Charge =  0 Multiplicity = 1

 SCF Done:  E(UwB97XD) =  -466.817585418     A.U. after   17 cycles
 Normal termination of Gaussian 16 at Mon Aug  3 23:59:31 2020.
 Gaussian 16:  ES64L-G16RevB.01 20-Dec-2017

                          Input orientation:
 ---------------------------------------------------------------------
 Center     Atomic      Atomic             Coordinates (Angstroms)
 Number     Number       Type             X           Y           Z
 ---------------------------------------------------------------------
      1          6           0       -3.124680   -0.440685    0.273036
      2          6           0       -0.775792   -0.261985   -1.302176
      3          1           0       -4.054066   -0.525819    0.824190
      4          1           0        0.161604   -0.184531   -1.839436
      5          6           0        1.198536    1.432924    0.834184
      6          6           0        0.775792    0.261985    1.302176
      7          1           0        0.608196    2.330179    0.977711
      8          1           0       -0.161604    0.184531    1.839436
      9          6           0        1.605227   -0.981794    1.161635
     10          1           0        2.176937   -1.108268    2.090145
     11          1           0        0.956297   -1.855279    1.083849
     12          6           0        2.471867    1.533139    0.119408
     13          1           0        2.871405    2.516926   -0.096077
     14          6           0        3.124680    0.440685   -0.273036
     15          1           0        4.054066    0.525819   -0.824190
     16          6           0        2.563488   -0.934271   -0.032474
     17          1           0        2.043317   -1.256129   -0.942998
     18          1           0        3.372415   -1.652191    0.115362
     19          6           0       -1.198536   -1.432924   -0.834184
     20          1           0       -0.608196   -2.330179   -0.977711
     21          6           0       -2.471867   -1.533139   -0.119408
     22          1           0       -2.871405   -2.516926    0.096077
     23          6           0       -1.605227    0.981794   -1.161635
     24          1           0       -0.956297    1.855279   -1.083849
     25          1           0       -2.176937    1.108268   -2.090145
     26          6           0       -2.563488    0.934271    0.032474
     27          1           0       -3.372415    1.652191   -0.115362
     28          1           0       -2.043317    1.256129    0.942998
 ---------------------------------------------------------------------

 SCF Done:  E(UwB97XD) =  -466.810775003     A.U. after   17 cycles

 Alpha  occ. eigenvalues --  -10.27290 -10.27289 -10.27127 -10.27121 -10.27083
 Alpha  occ. eigenvalues --  -10.27079 -10.27076 -10.27072 -10.26792 -10.26787
 Alpha  occ. eigenvalues --  -10.26503 -10.26498  -0.93136  -0.92659  -0.83205
 Alpha  occ. eigenvalues --   -0.83118  -0.82886  -0.82706  -0.70360  -0.70222
 Alpha  occ. eigenvalues --   -0.66970  -0.66945  -0.58732  -0.58590  -0.56402
 Alpha  occ. eigenvalues --   -0.55785  -0.52527  -0.51742  -0.49930  -0.49874
 Alpha  occ. eigenvalues --   -0.48894  -0.48439  -0.46263  -0.45889  -0.44090
 Alpha  occ. eigenvalues --   -0.44069  -0.40211  -0.39993  -0.38656  -0.38323
 Alpha  occ. eigenvalues --   -0.38222  -0.38062  -0.28797  -0.26735
 Alpha virt. eigenvalues --    0.04875   0.05934   0.13292   0.14604   0.16419
 Alpha virt. eigenvalues --    0.16839   0.17198   0.18079   0.18381   0.19012
 Alpha virt. eigenvalues --    0.19584   0.19592   0.20079   0.21219   0.22973

  Beta  occ. eigenvalues --  -10.27290 -10.27289 -10.27127 -10.27121 -10.27083
  Beta  occ. eigenvalues --  -10.27079 -10.27076 -10.27072 -10.26792 -10.26787
  Beta  occ. eigenvalues --  -10.26503 -10.26498  -0.93136  -0.92659  -0.83205
  Beta  occ. eigenvalues --   -0.83118  -0.82886  -0.82706  -0.70360  -0.70222
  Beta  occ. eigenvalues --   -0.66970  -0.66945  -0.58732  -0.58590  -0.56402
  Beta  occ. eigenvalues --   -0.55785  -0.52527  -0.51742  -0.49930  -0.49874
  Beta  occ. eigenvalues --   -0.48894  -0.48439  -0.46263  -0.45889  -0.44090
  Beta  occ. eigenvalues --   -0.44069  -0.40211  -0.39993  -0.38656  -0.38323
  Beta  occ. eigenvalues --   -0.38222  -0.38062  -0.28797  -0.26735
  Beta virt. eigenvalues --    0.04875   0.05934   0.13292   0.14604   0.16419
  Beta virt. eigenvalues --    0.16839   0.17198   0.18079   0.18381   0.19012
  Beta virt. eigenvalues --    0.19584   0.19592   0.20079   0.21219   0.22973

 Mulliken charges and spin densities:
               1          2
     1  C   -0.203574   0.000001
     2  C   -0.195286  -0.000001
     3  H    0.148663  -0.000000
     4  H    0.168580   0.000000
     5  C   -0.191717   0.000001
     6  C   -0.198499  -0.000001
     7  H    0.168231   0.000000
     8  H    0.168963   0.000000
     9  C   -0.213191  -0.000001
    10  H    0.131233   0.000000
    11  H    0.141672   0.000000
    12  C   -0.160038  -0.000001
    13  H    0.151848  -0.000000
    14  C   -0.203021   0.000002
    15  H    0.148625  -0.000000
    16  C   -0.193008   0.000000
    17  H    0.116268   0.000000
    18  H    0.132716  -0.000000
    19  C   -0.191883   0.000001
    20  H    0.166994  -0.000000
    21  C   -0.160640  -0.000001
    22  H    0.151589   0.000000
    23  C   -0.213091   0.000001
    24  H    0.140786  -0.000000
    25  H    0.131288  -0.000000
    26  C   -0.193987  -0.000001
    27  H    0.133174   0.000000
    28  H    0.117306   0.000000
 Sum of Mulliken charges =  -0.00000   0.00000

 Dipole moment (field-independent basis, Debye):
    X=             -0.0011    Y=             -0.0005    Z=              0.0003  Tot=              0.0012
 Quadrupole moment (field-independent basis, Debye-Ang):
   XX=            -70.3792   YY=            -68.1102   ZZ=            -75.1172
   XY=             -3.3316   XZ=             -3.8687   YZ=             -1.7270

 Normal termination of Gaussian 16 at Tue Aug  4 00:04:54 2020.
