 Gaussian 16, Revision B.01,
 Gaussian 16:  ES64L-G16RevB.01 20-Dec-2017

 ----------------------------------------------------------------------
 #p uwb97xd guess=mix def2tzvp # scrf=(iefpcm,solvent=Cyclohexane,read)
  nosym 6d 10f
 ----------------------------------------------------------------------

 -----------------------
 endo-2 xp-pcm for eta=3
 -----------------------
 Symbolic Z-matrix:
 Charge =  0 Multiplicity = 1

                          Input orientation:
 ---------------------------------------------------------------------
 Center     Atomic      Atomic             Coordinates (Angstroms)
 Number     Number       Type             X           Y           Z
 ---------------------------------------------------------------------
      1          6           0       -3.119495   -0.424944    0.248623
      2          6           0       -0.424245   -0.121866   -0.714774
      3          1           0       -4.087821   -0.546420    0.718451
      4          1           0        0.329403   -0.107658   -1.504901
      5          6           0        1.115717    1.433579    0.663678
      6          6           0        0.424245    0.121866    0.714774
      7          1           0        0.572069    2.333570    0.922475
      8          1           0       -0.329403    0.107658    1.504901
      9          6           0        1.449468   -0.996358    0.973459
     10          1           0        1.860814   -0.868763    1.978620
     11          1           0        0.954950   -1.969025    0.953713
     12          6           0        2.394417    1.530763    0.127030
     13          1           0        2.830840    2.513824   -0.012217
     14          6           0        3.119495    0.424944   -0.248623
     15          1           0        4.087821    0.546420   -0.718451
     16          6           0        2.592866   -0.960276   -0.042448
     17          1           0        2.249153   -1.362262   -1.005025
     18          1           0        3.400748   -1.625122    0.274929
     19          6           0       -1.115717   -1.433580   -0.663678
     20          1           0       -0.572069   -2.333570   -0.922475
     21          6           0       -2.394417   -1.530763   -0.127030
     22          1           0       -2.830840   -2.513824    0.012217
     23          6           0       -1.449468    0.996358   -0.973459
     24          1           0       -0.954950    1.969025   -0.953713
     25          1           0       -1.860814    0.868763   -1.978620
     26          6           0       -2.592866    0.960276    0.042448
     27          1           0       -3.400748    1.625122   -0.274929
     28          1           0       -2.249153    1.362262    1.005025
 ---------------------------------------------------------------------

 SCF Done:  E(UwB97XD) =  -466.833064861     A.U. after   14 cycles

 Alpha  occ. eigenvalues --  -10.29643 -10.29488 -10.28843 -10.28583 -10.28436
 Alpha  occ. eigenvalues --  -10.28392 -10.28214 -10.28143 -10.27954 -10.27932
 Alpha  occ. eigenvalues --  -10.27893 -10.27857  -0.95134  -0.92739  -0.85510
 Alpha  occ. eigenvalues --   -0.84540  -0.83587  -0.81227  -0.71155  -0.70552
 Alpha  occ. eigenvalues --   -0.69320  -0.67630  -0.60011  -0.59181  -0.58661
 Alpha  occ. eigenvalues --   -0.56296  -0.53552  -0.52695  -0.50758  -0.49173
 Alpha  occ. eigenvalues --   -0.48856  -0.48336  -0.48144  -0.47320  -0.46250
 Alpha  occ. eigenvalues --   -0.44763  -0.41515  -0.40882  -0.40015  -0.39222
 Alpha  occ. eigenvalues --   -0.38015  -0.37187  -0.34355  -0.25153
 Alpha virt. eigenvalues --    0.00077   0.10272   0.10536   0.12440   0.13145
 Alpha virt. eigenvalues --    0.14060   0.14671   0.15424   0.16051   0.16304
 Alpha virt. eigenvalues --    0.16949   0.17092   0.18380   0.19978   0.20314

  Beta  occ. eigenvalues --  -10.29644 -10.29488 -10.28844 -10.28584 -10.28437
  Beta  occ. eigenvalues --  -10.28391 -10.28213 -10.28142 -10.27952 -10.27934
  Beta  occ. eigenvalues --  -10.27894 -10.27856  -0.95134  -0.92739  -0.85510
  Beta  occ. eigenvalues --   -0.84540  -0.83587  -0.81227  -0.71155  -0.70551
  Beta  occ. eigenvalues --   -0.69320  -0.67630  -0.60011  -0.59181  -0.58661
  Beta  occ. eigenvalues --   -0.56296  -0.53552  -0.52695  -0.50758  -0.49174
  Beta  occ. eigenvalues --   -0.48856  -0.48336  -0.48144  -0.47320  -0.46250
  Beta  occ. eigenvalues --   -0.44763  -0.41516  -0.40881  -0.40015  -0.39222
  Beta  occ. eigenvalues --   -0.38015  -0.37186  -0.34355  -0.25154
  Beta virt. eigenvalues --    0.00078   0.10272   0.10535   0.12440   0.13144
  Beta virt. eigenvalues --    0.14060   0.14672   0.15424   0.16051   0.16304
  Beta virt. eigenvalues --    0.16950   0.17091   0.18380   0.19978   0.20314

 Mulliken charges and spin densities:
               1          2
     1  C   -0.199092  -0.579131
     2  C   -0.119135   0.071334
     3  H    0.144997   0.024269
     4  H    0.133980  -0.008713
     5  C   -0.193288   0.619288
     6  C   -0.119146  -0.071335
     7  H    0.157982  -0.025637
     8  H    0.133873   0.008714
     9  C   -0.219407   0.011332
    10  H    0.119300  -0.000623
    11  H    0.134818  -0.000938
    12  C   -0.165510  -0.225941
    13  H    0.142261   0.009309
    14  C   -0.199064   0.579122
    15  H    0.145002  -0.024270
    16  C   -0.181304  -0.036027
    17  H    0.116868   0.032355
    18  H    0.127615   0.013762
    19  C   -0.193328  -0.619284
    20  H    0.157873   0.025638
    21  C   -0.165596   0.225944
    22  H    0.142274  -0.009309
    23  C   -0.219389  -0.011331
    24  H    0.134707   0.000940
    25  H    0.119456   0.000623
    26  C   -0.181339   0.036029
    27  H    0.127608  -0.013763
    28  H    0.116981  -0.032357
 Sum of Mulliken charges =  -0.00000  -0.00000

 Dipole moment (field-independent basis, Debye):
    X=             -0.0003    Y=              0.0010    Z=              0.0001  Tot=              0.0010
 Quadrupole moment (field-independent basis, Debye-Ang):
   XX=            -72.1121   YY=            -71.2091   ZZ=            -76.3068
   XY=             -2.5554   XZ=             -2.9326   YZ=             -0.2504

 Normal termination of Gaussian 16 at Mon Aug  3 16:53:42 2020.
