 Gaussian 16, Revision B.01,
 Gaussian 16:  ES64L-G16RevB.01 20-Dec-2017

 ----------------------------------------------------------------------
 #p uwb97xd guess=mix def2tzvp # scrf=(iefpcm,solvent=Cyclohexane,read)
  nosym 6d 10f
 ----------------------------------------------------------------------

 -----------------------
 endo-2 xp-pcm for eta=3
 -----------------------
 Symbolic Z-matrix:
 Charge =  0 Multiplicity = 1

                          Input orientation:
 ---------------------------------------------------------------------
 Center     Atomic      Atomic             Coordinates (Angstroms)
 Number     Number       Type             X           Y           Z
 ---------------------------------------------------------------------
      1          6           0       -3.130926   -0.423925    0.230614
      2          6           0       -0.402668   -0.125188   -0.661714
      3          1           0       -4.121721   -0.544101    0.651020
      4          1           0        0.324925   -0.126026   -1.477873
      5          6           0        1.104701    1.443859    0.614659
      6          6           0        0.402668    0.125188    0.661714
      7          1           0        0.570306    2.342088    0.897018
      8          1           0       -0.324925    0.126026    1.477873
      9          6           0        1.426074   -0.983719    0.936566
     10          1           0        1.827679   -0.830304    1.941515
     11          1           0        0.940037   -1.960429    0.934664
     12          6           0        2.402045    1.533898    0.142597
     13          1           0        2.860563    2.512891    0.054740
     14          6           0        3.130926    0.423925   -0.230614
     15          1           0        4.121721    0.544101   -0.651020
     16          6           0        2.584558   -0.957939   -0.060346
     17          1           0        2.258123   -1.348285   -1.033742
     18          1           0        3.376997   -1.634728    0.270453
     19          6           0       -1.104701   -1.443859   -0.614659
     20          1           0       -0.570306   -2.342088   -0.897018
     21          6           0       -2.402045   -1.533898   -0.142597
     22          1           0       -2.860563   -2.512891   -0.054740
     23          6           0       -1.426074    0.983719   -0.936566
     24          1           0       -0.940037    1.960429   -0.934664
     25          1           0       -1.827679    0.830304   -1.941515
     26          6           0       -2.584558    0.957939    0.060346
     27          1           0       -3.376997    1.634728   -0.270453
     28          1           0       -2.258122    1.348285    1.033742
 ---------------------------------------------------------------------

 SCF Done:  E(UwB97XD) =  -466.837176627     A.U. after   15 cycles

 Alpha  occ. eigenvalues --  -10.29011 -10.28888 -10.28866 -10.28570 -10.28410
 Alpha  occ. eigenvalues --  -10.28362 -10.28211 -10.28141 -10.27893 -10.27848
 Alpha  occ. eigenvalues --  -10.27746 -10.27729  -0.95665  -0.92722  -0.86122
 Alpha  occ. eigenvalues --   -0.84644  -0.83577  -0.80951  -0.71566  -0.70769
 Alpha  occ. eigenvalues --   -0.69187  -0.67559  -0.60238  -0.59379  -0.58771
 Alpha  occ. eigenvalues --   -0.56230  -0.53654  -0.52644  -0.51050  -0.49059
 Alpha  occ. eigenvalues --   -0.49045  -0.48667  -0.48346  -0.47434  -0.45884
 Alpha  occ. eigenvalues --   -0.44733  -0.41402  -0.40892  -0.40030  -0.38896
 Alpha  occ. eigenvalues --   -0.37754  -0.37432  -0.34755  -0.25308
 Alpha virt. eigenvalues --    0.00160   0.10594   0.10620   0.12320   0.13171
 Alpha virt. eigenvalues --    0.14032   0.14770   0.15380   0.16047   0.16279
 Alpha virt. eigenvalues --    0.17034   0.17162   0.18411   0.20009   0.20218

  Beta  occ. eigenvalues --  -10.29011 -10.28888 -10.28867 -10.28570 -10.28409
  Beta  occ. eigenvalues --  -10.28362 -10.28211 -10.28140 -10.27893 -10.27848
  Beta  occ. eigenvalues --  -10.27745 -10.27729  -0.95665  -0.92722  -0.86122
  Beta  occ. eigenvalues --   -0.84644  -0.83577  -0.80951  -0.71566  -0.70769
  Beta  occ. eigenvalues --   -0.69187  -0.67559  -0.60238  -0.59379  -0.58771
  Beta  occ. eigenvalues --   -0.56230  -0.53654  -0.52644  -0.51050  -0.49059
  Beta  occ. eigenvalues --   -0.49045  -0.48667  -0.48346  -0.47434  -0.45884
  Beta  occ. eigenvalues --   -0.44733  -0.41402  -0.40892  -0.40030  -0.38896
  Beta  occ. eigenvalues --   -0.37754  -0.37433  -0.34754  -0.25308
  Beta virt. eigenvalues --    0.00160   0.10594   0.10621   0.12320   0.13171
  Beta virt. eigenvalues --    0.14032   0.14770   0.15380   0.16047   0.16279
  Beta virt. eigenvalues --    0.17035   0.17161   0.18411   0.20009   0.20218

 Mulliken charges and spin densities:
               1          2
     1  C   -0.198736  -0.604240
     2  C   -0.100996   0.048221
     3  H    0.144678   0.025392
     4  H    0.129347  -0.008319
     5  C   -0.210010   0.616230
     6  C   -0.100868  -0.048220
     7  H    0.161755  -0.025737
     8  H    0.129209   0.008320
     9  C   -0.224654   0.010638
    10  H    0.118590  -0.000217
    11  H    0.135697  -0.000623
    12  C   -0.161534  -0.226287
    13  H    0.141506   0.009237
    14  C   -0.198811   0.604239
    15  H    0.144673  -0.025392
    16  C   -0.178983  -0.037037
    17  H    0.115960   0.033497
    18  H    0.127445   0.014083
    19  C   -0.210002  -0.616230
    20  H    0.161813   0.025734
    21  C   -0.161652   0.226286
    22  H    0.141505  -0.009237
    23  C   -0.224747  -0.010633
    24  H    0.135691   0.000622
    25  H    0.118688   0.000217
    26  C   -0.178965   0.037036
    27  H    0.127450  -0.014083
    28  H    0.115953  -0.033499
 Sum of Mulliken charges =  -0.00000   0.00000

 Dipole moment (field-independent basis, Debye):
    X=              0.0008    Y=             -0.0002    Z=             -0.0001  Tot=              0.0008
 Quadrupole moment (field-independent basis, Debye-Ang):
   XX=            -71.8505   YY=            -71.2070   ZZ=            -76.4105
   XY=             -2.3501   XZ=             -2.5353   YZ=              0.1999

 Normal termination of Gaussian 16 at Mon Aug  3 17:11:50 2020.
