 Gaussian 16, Revision B.01,

 ----------------------------------------------------------------------
 #p uwb97xd guess=mix def2tzvp # scrf=(iefpcm,solvent=Cyclohexane,read)
  nosym 6d 10f
 ----------------------------------------------------------------------

 -----------------------
 endo-2 xp-pcm for eta=3
 -----------------------
 Symbolic Z-matrix:
 Charge =  0 Multiplicity = 1

 SCF Done:  E(UwB97XD) =  -466.829433909     A.U. after   18 cycles
 Normal termination of Gaussian 16 at Tue Aug  4 09:24:38 2020.

 ----------------------------------------------------------------------
 #p uwb97xd guess=mix def2tzvp # scrf=(iefpcm,solvent=Cyclohexane,read)
  nosym 6d 10f
 ----------------------------------------------------------------------

 -----------------------
 endo-2 xp-pcm for eta=3
 -----------------------
 Symbolic Z-matrix:
 Charge =  0 Multiplicity = 1

 SCF Done:  E(UwB97XD) =  -466.826049972     A.U. after   18 cycles
 Normal termination of Gaussian 16 at Tue Aug  4 09:30:24 2020.

 ----------------------------------------------------------------------
 #p uwb97xd guess=mix def2tzvp # scrf=(iefpcm,solvent=Cyclohexane,read)
  nosym 6d 10f
 ----------------------------------------------------------------------

 -----------------------
 endo-2 xp-pcm for eta=3
 -----------------------
 Symbolic Z-matrix:
 Charge =  0 Multiplicity = 1

 SCF Done:  E(UwB97XD) =  -466.821249024     A.U. after   18 cycles
 Normal termination of Gaussian 16 at Tue Aug  4 09:36:07 2020.

 ----------------------------------------------------------------------
 #p uwb97xd guess=mix def2tzvp # scrf=(iefpcm,solvent=Cyclohexane,read)
  nosym 6d 10f
 ----------------------------------------------------------------------

 -----------------------
 endo-2 xp-pcm for eta=3
 -----------------------
 Symbolic Z-matrix:
 Charge =  0 Multiplicity = 1

 SCF Done:  E(UwB97XD) =  -466.815067737     A.U. after   18 cycles
 Normal termination of Gaussian 16 at Tue Aug  4 09:41:53 2020.

 ----------------------------------------------------------------------
 #p uwb97xd guess=mix def2tzvp # scrf=(iefpcm,solvent=Cyclohexane,read)
  nosym 6d 10f
 ----------------------------------------------------------------------

 -----------------------
 endo-2 xp-pcm for eta=3
 -----------------------
 Symbolic Z-matrix:
 Charge =  0 Multiplicity = 1

 SCF Done:  E(UwB97XD) =  -466.805143998     A.U. after   18 cycles
 Normal termination of Gaussian 16 at Tue Aug  4 09:47:39 2020.

 ----------------------------------------------------------------------
 #p uwb97xd guess=mix def2tzvp # scrf=(iefpcm,solvent=Cyclohexane,read)
  nosym 6d 10f
 ----------------------------------------------------------------------

 -----------------------
 endo-2 xp-pcm for eta=3
 -----------------------
 Symbolic Z-matrix:
 Charge =  0 Multiplicity = 1

 SCF Done:  E(UwB97XD) =  -466.797812569     A.U. after   18 cycles
 Normal termination of Gaussian 16 at Tue Aug  4 09:53:25 2020.
 Gaussian 16:  ES64L-G16RevB.01 20-Dec-2017

                          Input orientation:
 ---------------------------------------------------------------------
 Center     Atomic      Atomic             Coordinates (Angstroms)
 Number     Number       Type             X           Y           Z
 ---------------------------------------------------------------------
      1          6           0       -3.120849   -0.437571    0.247983
      2          6           0       -0.595896   -0.213392   -1.011977
      3          1           0       -4.084599   -0.548890    0.731234
      4          1           0        0.369499   -0.121508   -1.489233
      5          6           0        1.095787    1.409118    0.700116
      6          6           0        0.595896    0.213392    1.011977
      7          1           0        0.513469    2.310071    0.845290
      8          1           0       -0.369499    0.121508    1.489233
      9          6           0        1.478063   -1.000287    1.004227
     10          1           0        1.940410   -1.028087    1.998902
     11          1           0        0.895946   -1.915783    0.915280
     12          6           0        2.423651    1.516981    0.110100
     13          1           0        2.832064    2.505394   -0.064213
     14          6           0        3.120849    0.437571   -0.247983
     15          1           0        4.084599    0.548890   -0.731234
     16          6           0        2.590846   -0.955955   -0.045910
     17          1           0        2.243218   -1.349244   -1.009243
     18          1           0        3.400776   -1.620708    0.261854
     19          6           0       -1.095787   -1.409118   -0.700116
     20          1           0       -0.513469   -2.310071   -0.845290
     21          6           0       -2.423651   -1.516981   -0.110100
     22          1           0       -2.832064   -2.505394    0.064213
     23          6           0       -1.478063    1.000287   -1.004227
     24          1           0       -0.895946    1.915783   -0.915280
     25          1           0       -1.940410    1.028087   -1.998902
     26          6           0       -2.590846    0.955955    0.045910
     27          1           0       -3.400776    1.620708   -0.261855
     28          1           0       -2.243218    1.349244    1.009243
 ---------------------------------------------------------------------

 SCF Done:  E(UwB97XD) =  -466.788375093     A.U. after   18 cycles

 Alpha  occ. eigenvalues --  -10.27385 -10.27385 -10.27240 -10.27238 -10.27007
 Alpha  occ. eigenvalues --  -10.27005 -10.26990 -10.26988 -10.26772 -10.26770
 Alpha  occ. eigenvalues --  -10.26020 -10.26020  -0.93712  -0.92460  -0.83848
 Alpha  occ. eigenvalues --   -0.83363  -0.82626  -0.82419  -0.70683  -0.69924
 Alpha  occ. eigenvalues --   -0.67474  -0.66819  -0.58908  -0.58876  -0.56744
 Alpha  occ. eigenvalues --   -0.55381  -0.52579  -0.52019  -0.50038  -0.49817
 Alpha  occ. eigenvalues --   -0.48820  -0.47954  -0.46602  -0.45885  -0.44915
 Alpha  occ. eigenvalues --   -0.43752  -0.40456  -0.39941  -0.38882  -0.38183
 Alpha  occ. eigenvalues --   -0.38144  -0.37542  -0.29436  -0.25111
 Alpha virt. eigenvalues --    0.03234   0.07841   0.13373   0.15184   0.16630
 Alpha virt. eigenvalues --    0.16662   0.17755   0.18598   0.18706   0.18917
 Alpha virt. eigenvalues --    0.19465   0.19544   0.20435   0.21371   0.22966

  Beta  occ. eigenvalues --  -10.27385 -10.27385 -10.27240 -10.27238 -10.27007
  Beta  occ. eigenvalues --  -10.27005 -10.26990 -10.26988 -10.26772 -10.26770
  Beta  occ. eigenvalues --  -10.26020 -10.26020  -0.93712  -0.92460  -0.83848
  Beta  occ. eigenvalues --   -0.83363  -0.82626  -0.82419  -0.70683  -0.69924
  Beta  occ. eigenvalues --   -0.67474  -0.66819  -0.58908  -0.58876  -0.56744
  Beta  occ. eigenvalues --   -0.55381  -0.52579  -0.52019  -0.50038  -0.49817
  Beta  occ. eigenvalues --   -0.48820  -0.47954  -0.46602  -0.45885  -0.44915
  Beta  occ. eigenvalues --   -0.43752  -0.40456  -0.39941  -0.38882  -0.38183
  Beta  occ. eigenvalues --   -0.38144  -0.37542  -0.29436  -0.25111
  Beta virt. eigenvalues --    0.03234   0.07841   0.13373   0.15184   0.16630
  Beta virt. eigenvalues --    0.16662   0.17755   0.18598   0.18706   0.18917
  Beta virt. eigenvalues --    0.19465   0.19544   0.20435   0.21371   0.22966

 Mulliken charges and spin densities:
               1          2
     1  C   -0.202506   0.000001
     2  C   -0.213852  -0.000001
     3  H    0.147861  -0.000000
     4  H    0.188436   0.000000
     5  C   -0.166797   0.000001
     6  C   -0.215133  -0.000001
     7  H    0.163068   0.000000
     8  H    0.187431  -0.000000
     9  C   -0.237655   0.000000
    10  H    0.134058  -0.000000
    11  H    0.155019  -0.000000
    12  C   -0.175034  -0.000001
    13  H    0.150798  -0.000000
    14  C   -0.203093   0.000001
    15  H    0.147967  -0.000000
    16  C   -0.199414  -0.000000
    17  H    0.124160   0.000000
    18  H    0.134664   0.000000
    19  C   -0.167718   0.000000
    20  H    0.163143  -0.000000
    21  C   -0.175377  -0.000001
    22  H    0.150627   0.000000
    23  C   -0.239824  -0.000000
    24  H    0.155855   0.000000
    25  H    0.134190   0.000000
    26  C   -0.200665   0.000000
    27  H    0.135000   0.000000
    28  H    0.124790  -0.000000
 Sum of Mulliken charges =  -0.00000  -0.00000

 Dipole moment (field-independent basis, Debye):
    X=             -0.0005    Y=              0.0018    Z=             -0.0015  Tot=              0.0024
 Quadrupole moment (field-independent basis, Debye-Ang):
   XX=            -70.2761   YY=            -68.2974   ZZ=            -75.6506
   XY=             -3.3837   XZ=             -3.2781   YZ=             -1.4690

 Normal termination of Gaussian 16 at Tue Aug  4 09:59:08 2020.
