 Gaussian 16, Revision B.01,

 ----------------------------------------------------------------------
 #p uwb97xd guess=mix def2tzvp # scrf=(iefpcm,solvent=Cyclohexane,read)
  nosym 6d 10f
 ----------------------------------------------------------------------

 -----------------------
 endo-2 xp-pcm for eta=3
 -----------------------
 Symbolic Z-matrix:
 Charge =  0 Multiplicity = 1

 SCF Done:  E(UwB97XD) =  -466.838275071     A.U. after   18 cycles
 Normal termination of Gaussian 16 at Tue Aug  4 06:43:35 2020.

 ----------------------------------------------------------------------
 #p uwb97xd guess=mix def2tzvp # scrf=(iefpcm,solvent=Cyclohexane,read)
  nosym 6d 10f
 ----------------------------------------------------------------------

 -----------------------
 endo-2 xp-pcm for eta=3
 -----------------------
 Symbolic Z-matrix:
 Charge =  0 Multiplicity = 1

 SCF Done:  E(UwB97XD) =  -466.835643826     A.U. after   18 cycles
 Normal termination of Gaussian 16 at Tue Aug  4 06:49:18 2020.

 ----------------------------------------------------------------------
 #p uwb97xd guess=mix def2tzvp # scrf=(iefpcm,solvent=Cyclohexane,read)
  nosym 6d 10f
 ----------------------------------------------------------------------

 -----------------------
 endo-2 xp-pcm for eta=3
 -----------------------
 Symbolic Z-matrix:
 Charge =  0 Multiplicity = 1

 SCF Done:  E(UwB97XD) =  -466.831623882     A.U. after   18 cycles
 Normal termination of Gaussian 16 at Tue Aug  4 06:55:02 2020.

 ----------------------------------------------------------------------
 #p uwb97xd guess=mix def2tzvp # scrf=(iefpcm,solvent=Cyclohexane,read)
  nosym 6d 10f
 ----------------------------------------------------------------------

 -----------------------
 endo-2 xp-pcm for eta=3
 -----------------------
 Symbolic Z-matrix:
 Charge =  0 Multiplicity = 1

 SCF Done:  E(UwB97XD) =  -466.824454669     A.U. after   18 cycles
 Normal termination of Gaussian 16 at Tue Aug  4 07:00:48 2020.

 ----------------------------------------------------------------------
 #p uwb97xd guess=mix def2tzvp # scrf=(iefpcm,solvent=Cyclohexane,read)
  nosym 6d 10f
 ----------------------------------------------------------------------

 -----------------------
 endo-2 xp-pcm for eta=3
 -----------------------
 Symbolic Z-matrix:
 Charge =  0 Multiplicity = 1

 SCF Done:  E(UwB97XD) =  -466.814106082     A.U. after   18 cycles
 Normal termination of Gaussian 16 at Tue Aug  4 07:06:38 2020.

 ----------------------------------------------------------------------
 #p uwb97xd guess=mix def2tzvp # scrf=(iefpcm,solvent=Cyclohexane,read)
  nosym 6d 10f
 ----------------------------------------------------------------------

 -----------------------
 endo-2 xp-pcm for eta=3
 -----------------------
 Symbolic Z-matrix:
 Charge =  0 Multiplicity = 1

 SCF Done:  E(UwB97XD) =  -466.807772497     A.U. after   18 cycles
 Normal termination of Gaussian 16 at Tue Aug  4 07:12:21 2020.
 Gaussian 16:  ES64L-G16RevB.01 20-Dec-2017

                          Input orientation:
 ---------------------------------------------------------------------
 Center     Atomic      Atomic             Coordinates (Angstroms)
 Number     Number       Type             X           Y           Z
 ---------------------------------------------------------------------
      1          6           0       -3.124486   -0.439464    0.250893
      2          6           0       -0.647306   -0.230427   -1.105597
      3          1           0       -4.084971   -0.544748    0.742034
      4          1           0        0.323194   -0.137629   -1.574480
      5          6           0        1.115957    1.415764    0.726197
      6          6           0        0.647306    0.230427    1.105597
      7          1           0        0.524506    2.313770    0.854246
      8          1           0       -0.323194    0.137629    1.574480
      9          6           0        1.503007   -1.001045    1.038660
     10          1           0        1.985221   -1.095436    2.019831
     11          1           0        0.887003   -1.891265    0.921479
     12          6           0        2.433841    1.521901    0.105946
     13          1           0        2.840105    2.509020   -0.080013
     14          6           0        3.124486    0.439464   -0.250893
     15          1           0        4.084971    0.544748   -0.742034
     16          6           0        2.587213   -0.950307   -0.043454
     17          1           0        2.204157   -1.326175   -1.000254
     18          1           0        3.400038   -1.626681    0.228849
     19          6           0       -1.115957   -1.415764   -0.726197
     20          1           0       -0.524506   -2.313770   -0.854246
     21          6           0       -2.433841   -1.521901   -0.105946
     22          1           0       -2.840105   -2.509020    0.080013
     23          6           0       -1.503007    1.001045   -1.038660
     24          1           0       -0.887003    1.891265   -0.921479
     25          1           0       -1.985221    1.095436   -2.019831
     26          6           0       -2.587213    0.950307    0.043454
     27          1           0       -3.400038    1.626680   -0.228849
     28          1           0       -2.204158    1.326175    1.000254
 ---------------------------------------------------------------------

 SCF Done:  E(UwB97XD) =  -466.800030708     A.U. after   18 cycles

 Alpha  occ. eigenvalues --  -10.27381 -10.27372 -10.27099 -10.27098 -10.27033
 Alpha  occ. eigenvalues --  -10.27031 -10.27028 -10.27022 -10.26776 -10.26775
 Alpha  occ. eigenvalues --  -10.26190 -10.26186  -0.93436  -0.92482  -0.83586
 Alpha  occ. eigenvalues --   -0.83304  -0.82649  -0.82600  -0.70641  -0.70058
 Alpha  occ. eigenvalues --   -0.67224  -0.66882  -0.58835  -0.58734  -0.56539
 Alpha  occ. eigenvalues --   -0.55487  -0.52707  -0.51892  -0.49981  -0.49921
 Alpha  occ. eigenvalues --   -0.48819  -0.48122  -0.46492  -0.45809  -0.44603
 Alpha  occ. eigenvalues --   -0.43876  -0.40382  -0.39928  -0.38832  -0.38246
 Alpha  occ. eigenvalues --   -0.38153  -0.37777  -0.29072  -0.25904
 Alpha virt. eigenvalues --    0.04028   0.06988   0.13386   0.15032   0.16586
 Alpha virt. eigenvalues --    0.16833   0.17615   0.18266   0.18686   0.18983
 Alpha virt. eigenvalues --    0.19434   0.19466   0.20302   0.21276   0.22981

  Beta  occ. eigenvalues --  -10.27381 -10.27372 -10.27099 -10.27098 -10.27033
  Beta  occ. eigenvalues --  -10.27031 -10.27028 -10.27022 -10.26776 -10.26775
  Beta  occ. eigenvalues --  -10.26190 -10.26186  -0.93436  -0.92482  -0.83586
  Beta  occ. eigenvalues --   -0.83304  -0.82649  -0.82600  -0.70641  -0.70058
  Beta  occ. eigenvalues --   -0.67224  -0.66882  -0.58835  -0.58734  -0.56539
  Beta  occ. eigenvalues --   -0.55487  -0.52707  -0.51892  -0.49981  -0.49921
  Beta  occ. eigenvalues --   -0.48819  -0.48122  -0.46492  -0.45809  -0.44603
  Beta  occ. eigenvalues --   -0.43876  -0.40382  -0.39928  -0.38832  -0.38246
  Beta  occ. eigenvalues --   -0.38153  -0.37777  -0.29072  -0.25904
  Beta virt. eigenvalues --    0.04028   0.06988   0.13386   0.15032   0.16586
  Beta virt. eigenvalues --    0.16833   0.17615   0.18266   0.18686   0.18983
  Beta virt. eigenvalues --    0.19434   0.19466   0.20302   0.21276   0.22981

 Mulliken charges and spin densities:
               1          2
     1  C   -0.202766   0.000001
     2  C   -0.207933  -0.000001
     3  H    0.147896   0.000000
     4  H    0.180011  -0.000000
     5  C   -0.176515   0.000001
     6  C   -0.207712  -0.000001
     7  H    0.165464   0.000000
     8  H    0.179538   0.000000
     9  C   -0.236898  -0.000001
    10  H    0.132919   0.000000
    11  H    0.152322   0.000000
    12  C   -0.166227  -0.000001
    13  H    0.151120   0.000000
    14  C   -0.203531   0.000001
    15  H    0.147790  -0.000000
    16  C   -0.196676   0.000000
    17  H    0.124014  -0.000000
    18  H    0.134383  -0.000000
    19  C   -0.176529   0.000000
    20  H    0.166212  -0.000000
    21  C   -0.166105  -0.000001
    22  H    0.150704   0.000000
    23  C   -0.236513   0.000001
    24  H    0.151419  -0.000000
    25  H    0.132901  -0.000000
    26  C   -0.196327  -0.000000
    27  H    0.134433   0.000000
    28  H    0.122609   0.000000
 Sum of Mulliken charges =  -0.00000   0.00000

 Dipole moment (field-independent basis, Debye):
    X=              0.0015    Y=             -0.0063    Z=             -0.0035  Tot=              0.0074
 Quadrupole moment (field-independent basis, Debye-Ang):
   XX=            -70.1542   YY=            -68.1769   ZZ=            -75.6970
   XY=             -3.4030   XZ=             -3.4469   YZ=             -1.6360

 Normal termination of Gaussian 16 at Tue Aug  4 07:18:00 2020.
