 Gaussian 16, Revision B.01,
 Gaussian 16:  ES64L-G16RevB.01 20-Dec-2017

 ----------------------------------------------------------------------
 #p uwb97xd guess=mix def2tzvp # scrf=(iefpcm,solvent=Cyclohexane,read)
  nosym 6d 10f
 ----------------------------------------------------------------------

 -----------------------
 endo-2 xp-pcm for eta=3
 -----------------------
 Symbolic Z-matrix:
 Charge =  0 Multiplicity = 1

                          Input orientation:
 ---------------------------------------------------------------------
 Center     Atomic      Atomic             Coordinates (Angstroms)
 Number     Number       Type             X           Y           Z
 ---------------------------------------------------------------------
      1          6           0       -3.119365   -0.429886    0.247711
      2          6           0       -0.483238   -0.151143   -0.817662
      3          1           0       -4.084691   -0.548341    0.724950
      4          1           0        0.345292   -0.114825   -1.519981
      5          6           0        1.109235    1.423870    0.678430
      6          6           0        0.483238    0.151143    0.817662
      7          1           0        0.550310    2.325971    0.892085
      8          1           0       -0.345292    0.114825    1.519981
      9          6           0        1.461352   -0.999620    0.986645
     10          1           0        1.894943   -0.928704    1.989628
     11          1           0        0.934187   -1.953298    0.939348
     12          6           0        2.402996    1.524681    0.119927
     13          1           0        2.824354    2.510372   -0.041948
     14          6           0        3.119365    0.429886   -0.247711
     15          1           0        4.084691    0.548341   -0.724950
     16          6           0        2.592455   -0.958721   -0.043087
     17          1           0        2.247288   -1.357377   -1.005814
     18          1           0        3.401438   -1.623242    0.270678
     19          6           0       -1.109235   -1.423870   -0.678430
     20          1           0       -0.550310   -2.325971   -0.892085
     21          6           0       -2.402996   -1.524681   -0.119927
     22          1           0       -2.824354   -2.510372    0.041948
     23          6           0       -1.461352    0.999620   -0.986645
     24          1           0       -0.934187    1.953298   -0.939348
     25          1           0       -1.894943    0.928704   -1.989628
     26          6           0       -2.592455    0.958721    0.043088
     27          1           0       -3.401438    1.623242   -0.270678
     28          1           0       -2.247288    1.357377    1.005814
 ---------------------------------------------------------------------

 SCF Done:  E(UwB97XD) =  -466.817549164     A.U. after   16 cycles

 Alpha  occ. eigenvalues --  -10.29967 -10.29647 -10.28688 -10.28504 -10.28465
 Alpha  occ. eigenvalues --  -10.28355 -10.28199 -10.28120 -10.28062 -10.28036
 Alpha  occ. eigenvalues --  -10.27901 -10.27692  -0.94954  -0.93077  -0.85113
 Alpha  occ. eigenvalues --   -0.84493  -0.83645  -0.82168  -0.71219  -0.70174
 Alpha  occ. eigenvalues --   -0.69558  -0.67837  -0.60009  -0.59401  -0.58306
 Alpha  occ. eigenvalues --   -0.56361  -0.53409  -0.53023  -0.50825  -0.49851
 Alpha  occ. eigenvalues --   -0.49194  -0.48149  -0.47903  -0.47455  -0.46530
 Alpha  occ. eigenvalues --   -0.44724  -0.41493  -0.40993  -0.39879  -0.39715
 Alpha  occ. eigenvalues --   -0.38923  -0.37325  -0.32654  -0.24468
 Alpha virt. eigenvalues --   -0.00294   0.09214   0.10464   0.12521   0.13119
 Alpha virt. eigenvalues --    0.14147   0.14539   0.15463   0.15990   0.16297
 Alpha virt. eigenvalues --    0.16665   0.17112   0.18253   0.19749   0.20493

  Beta  occ. eigenvalues --  -10.29967 -10.29647 -10.28688 -10.28504 -10.28465
  Beta  occ. eigenvalues --  -10.28356 -10.28199 -10.28120 -10.28063 -10.28035
  Beta  occ. eigenvalues --  -10.27901 -10.27691  -0.94954  -0.93077  -0.85113
  Beta  occ. eigenvalues --   -0.84493  -0.83645  -0.82168  -0.71219  -0.70174
  Beta  occ. eigenvalues --   -0.69557  -0.67837  -0.60009  -0.59401  -0.58306
  Beta  occ. eigenvalues --   -0.56361  -0.53409  -0.53022  -0.50825  -0.49851
  Beta  occ. eigenvalues --   -0.49194  -0.48149  -0.47903  -0.47455  -0.46530
  Beta  occ. eigenvalues --   -0.44724  -0.41493  -0.40993  -0.39879  -0.39716
  Beta  occ. eigenvalues --   -0.38923  -0.37325  -0.32654  -0.24468
  Beta virt. eigenvalues --   -0.00294   0.09214   0.10464   0.12521   0.13119
  Beta virt. eigenvalues --    0.14147   0.14539   0.15463   0.15990   0.16298
  Beta virt. eigenvalues --    0.16665   0.17112   0.18253   0.19749   0.20493

 Mulliken charges and spin densities:
               1          2
     1  C   -0.205309   0.460661
     2  C   -0.162767  -0.189671
     3  H    0.144174  -0.019353
     4  H    0.148120   0.012367
     5  C   -0.161358  -0.559325
     6  C   -0.162753   0.189662
     7  H    0.156279   0.023233
     8  H    0.148193  -0.012367
     9  C   -0.209849  -0.011418
    10  H    0.118470   0.004879
    11  H    0.136338   0.002905
    12  C   -0.172685   0.209209
    13  H    0.143505  -0.008248
    14  C   -0.205327  -0.460650
    15  H    0.144179   0.019352
    16  C   -0.179495   0.029945
    17  H    0.117125  -0.025182
    18  H    0.127356  -0.011080
    19  C   -0.161489   0.559321
    20  H    0.156460  -0.023229
    21  C   -0.172646  -0.209211
    22  H    0.143500   0.008248
    23  C   -0.209916   0.011416
    24  H    0.136399  -0.002904
    25  H    0.118486  -0.004879
    26  C   -0.179406  -0.029944
    27  H    0.127372   0.011079
    28  H    0.117042   0.025184
 Sum of Mulliken charges =  -0.00000   0.00000

 Dipole moment (field-independent basis, Debye):
    X=              0.0004    Y=             -0.0007    Z=             -0.0002  Tot=              0.0009
 Quadrupole moment (field-independent basis, Debye-Ang):
   XX=            -72.3715   YY=            -70.8802   ZZ=            -76.4860
   XY=             -2.8638   XZ=             -3.1198   YZ=             -0.5885

 Normal termination of Gaussian 16 at Mon Aug  3 16:35:18 2020.
