 Gaussian 16, Revision B.01,
 Gaussian 16:  ES64L-G16RevB.01 20-Dec-2017

 ----------------------------------------------------------------------
 #p uwb97xd guess=mix def2tzvp # scrf=(iefpcm,solvent=Cyclohexane,read)
  nosym 6d 10f
 ----------------------------------------------------------------------

 -----------------------
 endo-2 xp-pcm for eta=3
 -----------------------
 Symbolic Z-matrix:
 Charge =  0 Multiplicity = 1

                          Input orientation:
 ---------------------------------------------------------------------
 Center     Atomic      Atomic             Coordinates (Angstroms)
 Number     Number       Type             X           Y           Z
 ---------------------------------------------------------------------
      1          6           0       -3.118984   -0.431661    0.247435
      2          6           0       -0.498940   -0.160927   -0.842197
      3          1           0       -4.083986   -0.548798    0.725945
      4          1           0        0.353927   -0.115768   -1.511796
      5          6           0        1.104795    1.419144    0.680915
      6          6           0        0.498940    0.160927    0.842197
      7          1           0        0.544367    2.322264    0.886379
      8          1           0       -0.353927    0.115768    1.511797
      9          6           0        1.462637   -0.999808    0.987512
     10          1           0        1.898804   -0.937531    1.990366
     11          1           0        0.929588   -1.949702    0.936130
     12          6           0        2.406337    1.522553    0.118110
     13          1           0        2.824446    2.509213   -0.045570
     14          6           0        3.118984    0.431661   -0.247435
     15          1           0        4.083986    0.548798   -0.725945
     16          6           0        2.592283   -0.958575   -0.043388
     17          1           0        2.248595   -1.357032   -1.006499
     18          1           0        3.401257   -1.622519    0.271019
     19          6           0       -1.104795   -1.419144   -0.680915
     20          1           0       -0.544367   -2.322264   -0.886379
     21          6           0       -2.406337   -1.522553   -0.118110
     22          1           0       -2.824445   -2.509213    0.045570
     23          6           0       -1.462637    0.999808   -0.987512
     24          1           0       -0.929588    1.949702   -0.936130
     25          1           0       -1.898804    0.937531   -1.990366
     26          6           0       -2.592283    0.958575    0.043388
     27          1           0       -3.401256    1.622519   -0.271019
     28          1           0       -2.248595    1.357032    1.006498
 ---------------------------------------------------------------------

 SCF Done:  E(UwB97XD) =  -466.815524921     A.U. after   17 cycles

 Alpha  occ. eigenvalues --  -10.29868 -10.29513 -10.28619 -10.28533 -10.28497
 Alpha  occ. eigenvalues --  -10.28200 -10.28184 -10.28120 -10.28116 -10.28088
 Alpha  occ. eigenvalues --  -10.27916 -10.27591  -0.94973  -0.93187  -0.85109
 Alpha  occ. eigenvalues --   -0.84479  -0.83659  -0.82444  -0.71319  -0.70293
 Alpha  occ. eigenvalues --   -0.69433  -0.67866  -0.60050  -0.59518  -0.58233
 Alpha  occ. eigenvalues --   -0.56372  -0.53379  -0.53116  -0.50898  -0.50055
 Alpha  occ. eigenvalues --   -0.49354  -0.48237  -0.47960  -0.47413  -0.46497
 Alpha  occ. eigenvalues --   -0.44726  -0.41476  -0.41060  -0.39897  -0.39694
 Alpha  occ. eigenvalues --   -0.39077  -0.37500  -0.32242  -0.24268
 Alpha virt. eigenvalues --   -0.00406   0.08824   0.10449   0.12495   0.13153
 Alpha virt. eigenvalues --    0.14207   0.14519   0.15469   0.15969   0.16306
 Alpha virt. eigenvalues --    0.16578   0.17151   0.18184   0.19581   0.20287

  Beta  occ. eigenvalues --  -10.29868 -10.29513 -10.28619 -10.28533 -10.28497
  Beta  occ. eigenvalues --  -10.28200 -10.28184 -10.28120 -10.28116 -10.28088
  Beta  occ. eigenvalues --  -10.27916 -10.27590  -0.94973  -0.93187  -0.85109
  Beta  occ. eigenvalues --   -0.84479  -0.83659  -0.82444  -0.71319  -0.70292
  Beta  occ. eigenvalues --   -0.69433  -0.67866  -0.60050  -0.59518  -0.58233
  Beta  occ. eigenvalues --   -0.56372  -0.53380  -0.53116  -0.50898  -0.50055
  Beta  occ. eigenvalues --   -0.49354  -0.48237  -0.47960  -0.47413  -0.46497
  Beta  occ. eigenvalues --   -0.44726  -0.41476  -0.41060  -0.39897  -0.39694
  Beta  occ. eigenvalues --   -0.39077  -0.37500  -0.32242  -0.24268
  Beta virt. eigenvalues --   -0.00406   0.08824   0.10449   0.12495   0.13153
  Beta virt. eigenvalues --    0.14207   0.14519   0.15469   0.15969   0.16306
  Beta virt. eigenvalues --    0.16578   0.17151   0.18184   0.19581   0.20287

 Mulliken charges and spin densities:
               1          2
     1  C   -0.207629   0.389141
     2  C   -0.175265  -0.221951
     3  H    0.143715  -0.016379
     4  H    0.154125   0.012802
     5  C   -0.154203  -0.497066
     6  C   -0.175256   0.221946
     7  H    0.155380   0.020702
     8  H    0.154181  -0.012803
     9  C   -0.206372  -0.011056
    10  H    0.118819   0.006614
    11  H    0.137330   0.003379
    12  C   -0.174601   0.189019
    13  H    0.143928  -0.007437
    14  C   -0.207638  -0.389136
    15  H    0.143717   0.016379
    16  C   -0.179960   0.025897
    17  H    0.117138  -0.021019
    18  H    0.127531  -0.009412
    19  C   -0.154274   0.497064
    20  H    0.155472  -0.020699
    21  C   -0.174577  -0.189021
    22  H    0.143922   0.007437
    23  C   -0.206426   0.011056
    24  H    0.137364  -0.003378
    25  H    0.118851  -0.006614
    26  C   -0.179953  -0.025897
    27  H    0.127541   0.009412
    28  H    0.117142   0.021020
 Sum of Mulliken charges =  -0.00000   0.00000

 Dipole moment (field-independent basis, Debye):
    X=              0.0003    Y=             -0.0002    Z=             -0.0001  Tot=              0.0004
 Quadrupole moment (field-independent basis, Debye-Ang):
   XX=            -72.4584   YY=            -70.6975   ZZ=            -76.5936
   XY=             -2.9630   XZ=             -3.1342   YZ=             -0.7107

 Normal termination of Gaussian 16 at Mon Aug  3 16:24:57 2020.
