 Gaussian 16, Revision B.01,

 ----------------------------------------------------------------------
 #p uwb97xd guess=mix def2tzvp # scrf=(iefpcm,solvent=Cyclohexane,read)
  nosym 6d 10f
 ----------------------------------------------------------------------

 -----------------------
 endo-2 xp-pcm for eta=3
 -----------------------
 Symbolic Z-matrix:
 Charge =  0 Multiplicity = 1

 SCF Done:  E(UwB97XD) =  -466.843286995     A.U. after   18 cycles
 Normal termination of Gaussian 16 at Tue Aug  4 04:44:01 2020.

 ----------------------------------------------------------------------
 #p uwb97xd guess=mix def2tzvp # scrf=(iefpcm,solvent=Cyclohexane,read)
  nosym 6d 10f
 ----------------------------------------------------------------------

 -----------------------
 endo-2 xp-pcm for eta=3
 -----------------------
 Symbolic Z-matrix:
 Charge =  0 Multiplicity = 1

 SCF Done:  E(UwB97XD) =  -466.840191599     A.U. after   18 cycles
 Normal termination of Gaussian 16 at Tue Aug  4 04:49:44 2020.

 ----------------------------------------------------------------------
 #p uwb97xd guess=mix def2tzvp # scrf=(iefpcm,solvent=Cyclohexane,read)
  nosym 6d 10f
 ----------------------------------------------------------------------

 -----------------------
 endo-2 xp-pcm for eta=3
 -----------------------
 Symbolic Z-matrix:
 Charge =  0 Multiplicity = 1

 SCF Done:  E(UwB97XD) =  -466.836111231     A.U. after   18 cycles
 Normal termination of Gaussian 16 at Tue Aug  4 04:55:22 2020.

 ----------------------------------------------------------------------
 #p uwb97xd guess=mix def2tzvp # scrf=(iefpcm,solvent=Cyclohexane,read)
  nosym 6d 10f
 ----------------------------------------------------------------------

 -----------------------
 endo-2 xp-pcm for eta=3
 -----------------------
 Symbolic Z-matrix:
 Charge =  0 Multiplicity = 1

 SCF Done:  E(UwB97XD) =  -466.827797156     A.U. after   18 cycles
 Normal termination of Gaussian 16 at Tue Aug  4 05:01:07 2020.

 ----------------------------------------------------------------------
 #p uwb97xd guess=mix def2tzvp # scrf=(iefpcm,solvent=Cyclohexane,read)
  nosym 6d 10f
 ----------------------------------------------------------------------

 -----------------------
 endo-2 xp-pcm for eta=3
 -----------------------
 Symbolic Z-matrix:
 Charge =  0 Multiplicity = 1

 SCF Done:  E(UwB97XD) =  -466.818237358     A.U. after   18 cycles
 Normal termination of Gaussian 16 at Tue Aug  4 05:06:50 2020.

 ----------------------------------------------------------------------
 #p uwb97xd guess=mix def2tzvp # scrf=(iefpcm,solvent=Cyclohexane,read)
  nosym 6d 10f
 ----------------------------------------------------------------------

 -----------------------
 endo-2 xp-pcm for eta=3
 -----------------------
 Symbolic Z-matrix:
 Charge =  0 Multiplicity = 1

 SCF Done:  E(UwB97XD) =  -466.812154783     A.U. after   18 cycles
 Normal termination of Gaussian 16 at Tue Aug  4 05:12:31 2020.
 Gaussian 16:  ES64L-G16RevB.01 20-Dec-2017

                          Input orientation:
 ---------------------------------------------------------------------
 Center     Atomic      Atomic             Coordinates (Angstroms)
 Number     Number       Type             X           Y           Z
 ---------------------------------------------------------------------
      1          6           0       -3.126891   -0.440888    0.255118
      2          6           0       -0.684423   -0.239784   -1.165641
      3          1           0       -4.081225   -0.540147    0.759340
      4          1           0        0.279559   -0.151378   -1.650033
      5          6           0        1.137152    1.419764    0.752892
      6          6           0        0.684423    0.239784    1.165641
      7          1           0        0.543796    2.316608    0.882649
      8          1           0       -0.279559    0.151379    1.650033
      9          6           0        1.527143   -0.999005    1.070559
     10          1           0        2.027460   -1.119961    2.039740
     11          1           0        0.894773   -1.877853    0.948868
     12          6           0        2.443219    1.525992    0.104990
     13          1           0        2.846024    2.512508   -0.091240
     14          6           0        3.126891    0.440888   -0.255118
     15          1           0        4.081225    0.540147   -0.759340
     16          6           0        2.582831   -0.945113   -0.039623
     17          1           0        2.164096   -1.304863   -0.987620
     18          1           0        3.396382   -1.633179    0.198658
     19          6           0       -1.137152   -1.419764   -0.752892
     20          1           0       -0.543796   -2.316608   -0.882649
     21          6           0       -2.443219   -1.525992   -0.104990
     22          1           0       -2.846024   -2.512508    0.091240
     23          6           0       -1.527143    0.999005   -1.070559
     24          1           0       -0.894773    1.877853   -0.948868
     25          1           0       -2.027460    1.119961   -2.039740
     26          6           0       -2.582831    0.945113    0.039623
     27          1           0       -3.396382    1.633179   -0.198658
     28          1           0       -2.164097    1.304863    0.987620
 ---------------------------------------------------------------------

 SCF Done:  E(UwB97XD) =  -466.803722911     A.U. after   18 cycles

 Alpha  occ. eigenvalues --  -10.27354 -10.27343 -10.27072 -10.27070 -10.27049
 Alpha  occ. eigenvalues --  -10.27047 -10.27044 -10.27039 -10.26777 -10.26775
 Alpha  occ. eigenvalues --  -10.26297 -10.26293  -0.93297  -0.92516  -0.83439
 Alpha  occ. eigenvalues --   -0.83239  -0.82706  -0.82661  -0.70561  -0.70118
 Alpha  occ. eigenvalues --   -0.67110  -0.66910  -0.58789  -0.58655  -0.56446
 Alpha  occ. eigenvalues --   -0.55553  -0.52702  -0.51823  -0.49944  -0.49942
 Alpha  occ. eigenvalues --   -0.48824  -0.48227  -0.46409  -0.45805  -0.44408
 Alpha  occ. eigenvalues --   -0.43938  -0.40323  -0.39939  -0.38773  -0.38291
 Alpha  occ. eigenvalues --   -0.38168  -0.37878  -0.28929  -0.26238
 Alpha virt. eigenvalues --    0.04362   0.06575   0.13373   0.14916   0.16537
 Alpha virt. eigenvalues --    0.16884   0.17486   0.18186   0.18604   0.19063
 Alpha virt. eigenvalues --    0.19438   0.19494   0.20203   0.21244   0.22986

  Beta  occ. eigenvalues --  -10.27354 -10.27343 -10.27072 -10.27070 -10.27049
  Beta  occ. eigenvalues --  -10.27047 -10.27044 -10.27039 -10.26777 -10.26775
  Beta  occ. eigenvalues --  -10.26297 -10.26293  -0.93297  -0.92516  -0.83439
  Beta  occ. eigenvalues --   -0.83239  -0.82706  -0.82661  -0.70561  -0.70118
  Beta  occ. eigenvalues --   -0.67110  -0.66910  -0.58789  -0.58655  -0.56446
  Beta  occ. eigenvalues --   -0.55553  -0.52702  -0.51823  -0.49944  -0.49942
  Beta  occ. eigenvalues --   -0.48824  -0.48227  -0.46409  -0.45805  -0.44408
  Beta  occ. eigenvalues --   -0.43938  -0.40323  -0.39939  -0.38773  -0.38291
  Beta  occ. eigenvalues --   -0.38168  -0.37878  -0.28929  -0.26238
  Beta virt. eigenvalues --    0.04362   0.06575   0.13373   0.14916   0.16537
  Beta virt. eigenvalues --    0.16884   0.17486   0.18186   0.18604   0.19063
  Beta virt. eigenvalues --    0.19438   0.19494   0.20203   0.21244   0.22986

 Mulliken charges and spin densities:
               1          2
     1  C   -0.203915   0.000001
     2  C   -0.204405  -0.000001
     3  H    0.147983  -0.000000
     4  H    0.175941   0.000000
     5  C   -0.183462   0.000001
     6  C   -0.201364  -0.000001
     7  H    0.166189   0.000000
     8  H    0.174920   0.000000
     9  C   -0.231223  -0.000000
    10  H    0.131927   0.000000
    11  H    0.149283   0.000000
    12  C   -0.164112  -0.000001
    13  H    0.151491   0.000000
    14  C   -0.203155   0.000002
    15  H    0.148032  -0.000000
    16  C   -0.194101   0.000000
    17  H    0.122376   0.000000
    18  H    0.133300   0.000000
    19  C   -0.183528   0.000001
    20  H    0.167255  -0.000000
    21  C   -0.161191  -0.000001
    22  H    0.150409   0.000000
    23  C   -0.230150   0.000001
    24  H    0.148656  -0.000000
    25  H    0.131995  -0.000000
    26  C   -0.193347  -0.000000
    27  H    0.133403   0.000000
    28  H    0.120792   0.000000
 Sum of Mulliken charges =  -0.00000  -0.00000

 Dipole moment (field-independent basis, Debye):
    X=              0.0012    Y=             -0.0094    Z=             -0.0054  Tot=              0.0109
 Quadrupole moment (field-independent basis, Debye-Ang):
   XX=            -70.1674   YY=            -68.1538   ZZ=            -75.5775
   XY=             -3.4009   XZ=             -3.5790   YZ=             -1.6958

 Normal termination of Gaussian 16 at Tue Aug  4 05:18:08 2020.
