 Gaussian 16, Revision B.01,

 ----------------------------------------------------------------------
 #p uwb97xd guess=mix def2tzvp # scrf=(iefpcm,solvent=Cyclohexane,read)
  nosym 6d 10f
 ----------------------------------------------------------------------

 -----------------------
 endo-2 xp-pcm for eta=3
 -----------------------
 Symbolic Z-matrix:
 Charge =  0 Multiplicity = 1

 SCF Done:  E(UwB97XD) =  -466.807899184     A.U. after   16 cycles
 Normal termination of Gaussian 16 at Tue Aug  4 15:51:18 2020.

 ----------------------------------------------------------------------
 #p uwb97xd guess=mix def2tzvp # scrf=(iefpcm,solvent=Cyclohexane,read)
  nosym 6d 10f
 ----------------------------------------------------------------------

 -----------------------
 endo-2 xp-pcm for eta=3
 -----------------------
 Symbolic Z-matrix:
 Charge =  0 Multiplicity = 1

 SCF Done:  E(UwB97XD) =  -466.805219608     A.U. after   16 cycles
 Normal termination of Gaussian 16 at Tue Aug  4 15:56:33 2020.

 ----------------------------------------------------------------------
 #p uwb97xd guess=mix def2tzvp # scrf=(iefpcm,solvent=Cyclohexane,read)
  nosym 6d 10f
 ----------------------------------------------------------------------

 -----------------------
 endo-2 xp-pcm for eta=3
 -----------------------
 Symbolic Z-matrix:
 Charge =  0 Multiplicity = 1

 SCF Done:  E(UwB97XD) =  -466.800343827     A.U. after   16 cycles
 Normal termination of Gaussian 16 at Tue Aug  4 16:01:57 2020.

 ----------------------------------------------------------------------
 #p uwb97xd guess=mix def2tzvp # scrf=(iefpcm,solvent=Cyclohexane,read)
  nosym 6d 10f
 ----------------------------------------------------------------------

 -----------------------
 endo-2 xp-pcm for eta=3
 -----------------------
 Symbolic Z-matrix:
 Charge =  0 Multiplicity = 1

 SCF Done:  E(UwB97XD) =  -466.792347610     A.U. after   16 cycles
 Normal termination of Gaussian 16 at Tue Aug  4 16:07:10 2020.

 ----------------------------------------------------------------------
 #p uwb97xd guess=mix def2tzvp # scrf=(iefpcm,solvent=Cyclohexane,read)
  nosym 6d 10f
 ----------------------------------------------------------------------

 -----------------------
 endo-2 xp-pcm for eta=3
 -----------------------
 Symbolic Z-matrix:
 Charge =  0 Multiplicity = 1

 SCF Done:  E(UwB97XD) =  -466.784013988     A.U. after   16 cycles
 Normal termination of Gaussian 16 at Tue Aug  4 16:12:21 2020.

 ----------------------------------------------------------------------
 #p uwb97xd guess=mix def2tzvp # scrf=(iefpcm,solvent=Cyclohexane,read)
  nosym 6d 10f
 ----------------------------------------------------------------------

 -----------------------
 endo-2 xp-pcm for eta=3
 -----------------------
 Symbolic Z-matrix:
 Charge =  0 Multiplicity = 1

 SCF Done:  E(UwB97XD) =  -466.777891655     A.U. after   16 cycles
 Normal termination of Gaussian 16 at Tue Aug  4 16:17:32 2020.
 Gaussian 16:  ES64L-G16RevB.01 20-Dec-2017

                          Input orientation:
 ---------------------------------------------------------------------
 Center     Atomic      Atomic             Coordinates (Angstroms)
 Number     Number       Type             X           Y           Z
 ---------------------------------------------------------------------
      1          6           0       -3.119365   -0.429886    0.247711
      2          6           0       -0.483238   -0.151143   -0.817662
      3          1           0       -4.084691   -0.548341    0.724950
      4          1           0        0.345292   -0.114825   -1.519981
      5          6           0        1.109235    1.423870    0.678430
      6          6           0        0.483238    0.151143    0.817662
      7          1           0        0.550310    2.325971    0.892085
      8          1           0       -0.345292    0.114825    1.519981
      9          6           0        1.461352   -0.999620    0.986645
     10          1           0        1.894943   -0.928704    1.989628
     11          1           0        0.934187   -1.953298    0.939348
     12          6           0        2.402996    1.524681    0.119927
     13          1           0        2.824354    2.510372   -0.041948
     14          6           0        3.119365    0.429886   -0.247711
     15          1           0        4.084691    0.548341   -0.724950
     16          6           0        2.592455   -0.958721   -0.043087
     17          1           0        2.247288   -1.357377   -1.005814
     18          1           0        3.401438   -1.623242    0.270678
     19          6           0       -1.109235   -1.423870   -0.678430
     20          1           0       -0.550310   -2.325971   -0.892085
     21          6           0       -2.402996   -1.524681   -0.119927
     22          1           0       -2.824354   -2.510372    0.041948
     23          6           0       -1.461352    0.999620   -0.986645
     24          1           0       -0.934187    1.953298   -0.939348
     25          1           0       -1.894943    0.928704   -1.989628
     26          6           0       -2.592455    0.958721    0.043088
     27          1           0       -3.401438    1.623242   -0.270678
     28          1           0       -2.247288    1.357377    1.005814
 ---------------------------------------------------------------------

 SCF Done:  E(UwB97XD) =  -466.771077084     A.U. after   16 cycles

 Alpha  occ. eigenvalues --  -10.28821 -10.28494 -10.27438 -10.27270 -10.27228
 Alpha  occ. eigenvalues --  -10.27163 -10.26960 -10.26873 -10.26852 -10.26831
 Alpha  occ. eigenvalues --  -10.26664 -10.26492  -0.93887  -0.92013  -0.84056
 Alpha  occ. eigenvalues --   -0.83435  -0.82587  -0.81109  -0.70165  -0.69115
 Alpha  occ. eigenvalues --   -0.68510  -0.66791  -0.58937  -0.58328  -0.57258
 Alpha  occ. eigenvalues --   -0.55310  -0.52341  -0.51959  -0.49743  -0.48766
 Alpha  occ. eigenvalues --   -0.48104  -0.47041  -0.46791  -0.46346  -0.45442
 Alpha  occ. eigenvalues --   -0.43640  -0.40426  -0.39911  -0.38782  -0.38620
 Alpha  occ. eigenvalues --   -0.37858  -0.36303  -0.31586  -0.23417
 Alpha virt. eigenvalues --    0.00915   0.10523   0.13380   0.15537   0.15761
 Alpha virt. eigenvalues --    0.16344   0.17685   0.18541   0.19093   0.19418
 Alpha virt. eigenvalues --    0.19553   0.20250   0.21215   0.22060   0.23156

  Beta  occ. eigenvalues --  -10.28816 -10.28498 -10.27439 -10.27268 -10.27230
  Beta  occ. eigenvalues --  -10.27160 -10.26959 -10.26872 -10.26859 -10.26824
  Beta  occ. eigenvalues --  -10.26664 -10.26495  -0.93887  -0.92012  -0.84056
  Beta  occ. eigenvalues --   -0.83436  -0.82586  -0.81109  -0.70165  -0.69114
  Beta  occ. eigenvalues --   -0.68510  -0.66791  -0.58937  -0.58328  -0.57259
  Beta  occ. eigenvalues --   -0.55310  -0.52343  -0.51958  -0.49743  -0.48766
  Beta  occ. eigenvalues --   -0.48104  -0.47040  -0.46792  -0.46346  -0.45443
  Beta  occ. eigenvalues --   -0.43640  -0.40426  -0.39910  -0.38785  -0.38617
  Beta  occ. eigenvalues --   -0.37858  -0.36303  -0.31586  -0.23416
  Beta virt. eigenvalues --    0.00914   0.10523   0.13381   0.15537   0.15761
  Beta virt. eigenvalues --    0.16344   0.17685   0.18541   0.19094   0.19420
  Beta virt. eigenvalues --    0.19553   0.20248   0.21214   0.22058   0.23153

 Mulliken charges and spin densities:
               1          2
     1  C   -0.199336   0.457798
     2  C   -0.186429  -0.187413
     3  H    0.149907  -0.018778
     4  H    0.168141   0.012607
     5  C   -0.179973  -0.556366
     6  C   -0.187633   0.187448
     7  H    0.165737   0.022518
     8  H    0.167887  -0.012579
     9  C   -0.244915  -0.010629
    10  H    0.133797   0.004859
    11  H    0.148867   0.002274
    12  C   -0.168542   0.207246
    13  H    0.149209  -0.008025
    14  C   -0.200110  -0.457768
    15  H    0.149916   0.018775
    16  C   -0.196684   0.029198
    17  H    0.126734  -0.025428
    18  H    0.135342  -0.011172
    19  C   -0.179690   0.556366
    20  H    0.164970  -0.022535
    21  C   -0.169159  -0.207262
    22  H    0.149153   0.008024
    23  C   -0.244121   0.010519
    24  H    0.150175  -0.002228
    25  H    0.132735  -0.004857
    26  C   -0.198144  -0.029202
    27  H    0.135510   0.011173
    28  H    0.126657   0.025439
 Sum of Mulliken charges =  -0.00000  -0.00000

 Dipole moment (field-independent basis, Debye):
    X=             -0.0003    Y=              0.0034    Z=             -0.0064  Tot=              0.0072
 Quadrupole moment (field-independent basis, Debye-Ang):
   XX=            -70.2527   YY=            -69.2383   ZZ=            -74.9808
   XY=             -2.8939   XZ=             -3.1283   YZ=             -0.5735

 Normal termination of Gaussian 16 at Tue Aug  4 16:22:49 2020.
