 Gaussian 16, Revision B.01,

 ----------------------------------------------------------------------
 #p uwb97xd guess=mix def2tzvp # scrf=(iefpcm,solvent=Cyclohexane,read)
  nosym 6d 10f
 ----------------------------------------------------------------------

 -----------------------
 endo-2 xp-pcm for eta=3
 -----------------------
 Symbolic Z-matrix:
 Charge =  0 Multiplicity = 1

 SCF Done:  E(UwB97XD) =  -466.832250696     A.U. after   18 cycles
 Normal termination of Gaussian 16 at Tue Aug  4 08:43:59 2020.

 ----------------------------------------------------------------------
 #p uwb97xd guess=mix def2tzvp # scrf=(iefpcm,solvent=Cyclohexane,read)
  nosym 6d 10f
 ----------------------------------------------------------------------

 -----------------------
 endo-2 xp-pcm for eta=3
 -----------------------
 Symbolic Z-matrix:
 Charge =  0 Multiplicity = 1

 SCF Done:  E(UwB97XD) =  -466.828804260     A.U. after   18 cycles
 Normal termination of Gaussian 16 at Tue Aug  4 08:49:45 2020.

 ----------------------------------------------------------------------
 #p uwb97xd guess=mix def2tzvp # scrf=(iefpcm,solvent=Cyclohexane,read)
  nosym 6d 10f
 ----------------------------------------------------------------------

 -----------------------
 endo-2 xp-pcm for eta=3
 -----------------------
 Symbolic Z-matrix:
 Charge =  0 Multiplicity = 1

 SCF Done:  E(UwB97XD) =  -466.824432089     A.U. after   18 cycles
 Normal termination of Gaussian 16 at Tue Aug  4 08:55:28 2020.

 ----------------------------------------------------------------------
 #p uwb97xd guess=mix def2tzvp # scrf=(iefpcm,solvent=Cyclohexane,read)
  nosym 6d 10f
 ----------------------------------------------------------------------

 -----------------------
 endo-2 xp-pcm for eta=3
 -----------------------
 Symbolic Z-matrix:
 Charge =  0 Multiplicity = 1

 SCF Done:  E(UwB97XD) =  -466.817232727     A.U. after   18 cycles
 Normal termination of Gaussian 16 at Tue Aug  4 09:01:18 2020.

 ----------------------------------------------------------------------
 #p uwb97xd guess=mix def2tzvp # scrf=(iefpcm,solvent=Cyclohexane,read)
  nosym 6d 10f
 ----------------------------------------------------------------------

 -----------------------
 endo-2 xp-pcm for eta=3
 -----------------------
 Symbolic Z-matrix:
 Charge =  0 Multiplicity = 1

 SCF Done:  E(UwB97XD) =  -466.807625589     A.U. after   18 cycles
 Normal termination of Gaussian 16 at Tue Aug  4 09:07:04 2020.

 ----------------------------------------------------------------------
 #p uwb97xd guess=mix def2tzvp # scrf=(iefpcm,solvent=Cyclohexane,read)
  nosym 6d 10f
 ----------------------------------------------------------------------

 -----------------------
 endo-2 xp-pcm for eta=3
 -----------------------
 Symbolic Z-matrix:
 Charge =  0 Multiplicity = 1

 SCF Done:  E(UwB97XD) =  -466.801657307     A.U. after   18 cycles
 Normal termination of Gaussian 16 at Tue Aug  4 09:12:49 2020.
 Gaussian 16:  ES64L-G16RevB.01 20-Dec-2017

                          Input orientation:
 ---------------------------------------------------------------------
 Center     Atomic      Atomic             Coordinates (Angstroms)
 Number     Number       Type             X           Y           Z
 ---------------------------------------------------------------------
      1          6           0       -3.121693   -0.437935    0.248475
      2          6           0       -0.608894   -0.218266   -1.036985
      3          1           0       -4.085054   -0.548156    0.732789
      4          1           0        0.360308   -0.124712   -1.506593
      5          6           0        1.099596    1.410984    0.705395
      6          6           0        0.608894    0.218266    1.036985
      7          1           0        0.514105    2.311092    0.843328
      8          1           0       -0.360308    0.124712    1.506593
      9          6           0        1.483411   -1.000688    1.011498
     10          1           0        1.950917   -1.047718    2.003099
     11          1           0        0.891930   -1.909281    0.914020
     12          6           0        2.425900    1.517947    0.109041
     13          1           0        2.834101    2.505963   -0.067907
     14          6           0        3.121693    0.437935   -0.248475
     15          1           0        4.085054    0.548156   -0.732789
     16          6           0        2.590248   -0.954860   -0.045775
     17          1           0        2.235992   -1.344838   -1.008028
     18          1           0        3.400959   -1.621706    0.255233
     19          6           0       -1.099596   -1.410984   -0.705395
     20          1           0       -0.514105   -2.311092   -0.843328
     21          6           0       -2.425900   -1.517947   -0.109041
     22          1           0       -2.834101   -2.505963    0.067907
     23          6           0       -1.483411    1.000688   -1.011498
     24          1           0       -0.891929    1.909281   -0.914020
     25          1           0       -1.950917    1.047718   -2.003099
     26          6           0       -2.590248    0.954860    0.045775
     27          1           0       -3.400959    1.621706   -0.255234
     28          1           0       -2.235992    1.344838    1.008028
 ---------------------------------------------------------------------

 SCF Done:  E(UwB97XD) =  -466.791786730     A.U. after   18 cycles

 Alpha  occ. eigenvalues --  -10.27386 -10.27384 -10.27184 -10.27180 -10.27011
 Alpha  occ. eigenvalues --  -10.27010 -10.26997 -10.26994 -10.26773 -10.26771
 Alpha  occ. eigenvalues --  -10.26058 -10.26053  -0.93633  -0.92463  -0.83774
 Alpha  occ. eigenvalues --   -0.83351  -0.82631  -0.82469  -0.70681  -0.69964
 Alpha  occ. eigenvalues --   -0.67396  -0.66834  -0.58871  -0.58856  -0.56682
 Alpha  occ. eigenvalues --   -0.55408  -0.52624  -0.51982  -0.50023  -0.49855
 Alpha  occ. eigenvalues --   -0.48819  -0.47998  -0.46575  -0.45854  -0.44829
 Alpha  occ. eigenvalues --   -0.43782  -0.40437  -0.39931  -0.38875  -0.38170
 Alpha  occ. eigenvalues --   -0.38165  -0.37616  -0.29315  -0.25359
 Alpha virt. eigenvalues --    0.03493   0.07590   0.13383   0.15150   0.16631
 Alpha virt. eigenvalues --    0.16724   0.17734   0.18474   0.18727   0.18912
 Alpha virt. eigenvalues --    0.19460   0.19498   0.20412   0.21341   0.22972

  Beta  occ. eigenvalues --  -10.27386 -10.27384 -10.27184 -10.27180 -10.27011
  Beta  occ. eigenvalues --  -10.27010 -10.26997 -10.26994 -10.26773 -10.26771
  Beta  occ. eigenvalues --  -10.26058 -10.26053  -0.93633  -0.92463  -0.83774
  Beta  occ. eigenvalues --   -0.83351  -0.82631  -0.82469  -0.70681  -0.69964
  Beta  occ. eigenvalues --   -0.67396  -0.66834  -0.58871  -0.58856  -0.56682
  Beta  occ. eigenvalues --   -0.55408  -0.52624  -0.51982  -0.50023  -0.49855
  Beta  occ. eigenvalues --   -0.48819  -0.47998  -0.46575  -0.45854  -0.44829
  Beta  occ. eigenvalues --   -0.43782  -0.40437  -0.39931  -0.38875  -0.38170
  Beta  occ. eigenvalues --   -0.38165  -0.37616  -0.29315  -0.25359
  Beta virt. eigenvalues --    0.03493   0.07590   0.13383   0.15150   0.16631
  Beta virt. eigenvalues --    0.16724   0.17734   0.18474   0.18727   0.18912
  Beta virt. eigenvalues --    0.19460   0.19498   0.20412   0.21341   0.22972

 Mulliken charges and spin densities:
               1          2
     1  C   -0.202654   0.000001
     2  C   -0.212457  -0.000001
     3  H    0.147808  -0.000000
     4  H    0.186665   0.000000
     5  C   -0.169065   0.000001
     6  C   -0.212815  -0.000001
     7  H    0.163585   0.000000
     8  H    0.185632  -0.000000
     9  C   -0.237613   0.000001
    10  H    0.133871  -0.000000
    11  H    0.153700  -0.000000
    12  C   -0.173102  -0.000001
    13  H    0.150799  -0.000000
    14  C   -0.202769   0.000001
    15  H    0.147907  -0.000000
    16  C   -0.199030  -0.000001
    17  H    0.124328   0.000000
    18  H    0.134777   0.000000
    19  C   -0.171242   0.000001
    20  H    0.164814  -0.000000
    21  C   -0.172288  -0.000001
    22  H    0.150621   0.000000
    23  C   -0.240302  -0.000000
    24  H    0.155160   0.000000
    25  H    0.133863   0.000000
    26  C   -0.199233   0.000000
    27  H    0.134784  -0.000000
    28  H    0.124256  -0.000000
 Sum of Mulliken charges =  -0.00000  -0.00000

 Dipole moment (field-independent basis, Debye):
    X=              0.0007    Y=             -0.0005    Z=             -0.0039  Tot=              0.0040
 Quadrupole moment (field-independent basis, Debye-Ang):
   XX=            -70.2332   YY=            -68.2596   ZZ=            -75.6848
   XY=             -3.3982   XZ=             -3.3176   YZ=             -1.5212

 Normal termination of Gaussian 16 at Tue Aug  4 09:18:33 2020.
