 Gaussian 16, Revision B.01,
 Gaussian 16:  ES64L-G16RevB.01 20-Dec-2017

 ----------------------------------------------------------------------
 #p uwb97xd guess=mix def2tzvp # scrf=(iefpcm,solvent=Cyclohexane,read)
  nosym 6d 10f
 ----------------------------------------------------------------------

 -----------------------
 endo-2 xp-pcm for eta=3
 -----------------------
 Symbolic Z-matrix:
 Charge =  0 Multiplicity = 1

                          Input orientation:
 ---------------------------------------------------------------------
 Center     Atomic      Atomic             Coordinates (Angstroms)
 Number     Number       Type             X           Y           Z
 ---------------------------------------------------------------------
      1          6           0       -3.093267   -0.435973    0.300434
      2          6           0       -0.866740   -0.289096   -1.445431
      3          1           0       -3.986142   -0.504800    0.910939
      4          1           0        0.030308   -0.224943   -2.049778
      5          6           0        1.262349    1.452521    0.934535
      6          6           0        0.866740    0.289096    1.445431
      7          1           0        0.688360    2.355340    1.107147
      8          1           0       -0.030308    0.224943    2.049778
      9          6           0        1.683814   -0.957175    1.256502
     10          1           0        2.348618   -1.062059    2.124256
     11          1           0        1.035891   -1.835298    1.258793
     12          6           0        2.490317    1.538213    0.141849
     13          1           0        2.893062    2.516708   -0.090946
     14          6           0        3.093267    0.435973   -0.300434
     15          1           0        3.986142    0.504800   -0.910939
     16          6           0        2.511845   -0.924519   -0.029450
     17          1           0        1.879054   -1.202820   -0.880995
     18          1           0        3.302586   -1.675290    0.018282
     19          6           0       -1.262349   -1.452521   -0.934535
     20          1           0       -0.688360   -2.355340   -1.107147
     21          6           0       -2.490317   -1.538213   -0.141849
     22          1           0       -2.893062   -2.516708    0.090946
     23          6           0       -1.683814    0.957175   -1.256502
     24          1           0       -1.035891    1.835298   -1.258793
     25          1           0       -2.348618    1.062059   -2.124256
     26          6           0       -2.511845    0.924519    0.029450
     27          1           0       -3.302586    1.675290   -0.018282
     28          1           0       -1.879054    1.202820    0.880995
 ---------------------------------------------------------------------

 SCF Done:  E(UwB97XD) =  -466.860493106     A.U. after   17 cycles

 Alpha  occ. eigenvalues --  -10.28388 -10.28387 -10.28332 -10.28331 -10.28313
 Alpha  occ. eigenvalues --  -10.28312 -10.28255 -10.28253 -10.28018 -10.28016
 Alpha  occ. eigenvalues --  -10.27801 -10.27799  -0.94140  -0.93836  -0.84102
 Alpha  occ. eigenvalues --   -0.84092  -0.83968  -0.83762  -0.71286  -0.71221
 Alpha  occ. eigenvalues --   -0.67971  -0.67935  -0.59783  -0.59651  -0.57505
 Alpha  occ. eigenvalues --   -0.57050  -0.53336  -0.52688  -0.50923  -0.50865
 Alpha  occ. eigenvalues --   -0.50035  -0.49647  -0.47307  -0.47098  -0.45215
 Alpha  occ. eigenvalues --   -0.44923  -0.41220  -0.41123  -0.39622  -0.39317
 Alpha  occ. eigenvalues --   -0.39211  -0.39187  -0.29782  -0.28045
 Alpha virt. eigenvalues --    0.03966   0.04401   0.10534   0.12248   0.13257
 Alpha virt. eigenvalues --    0.14224   0.14447   0.15472   0.15544   0.15995
 Alpha virt. eigenvalues --    0.16893   0.16935   0.17115   0.18245   0.19858

  Beta  occ. eigenvalues --  -10.28388 -10.28387 -10.28332 -10.28331 -10.28313
  Beta  occ. eigenvalues --  -10.28312 -10.28255 -10.28253 -10.28018 -10.28016
  Beta  occ. eigenvalues --  -10.27801 -10.27799  -0.94140  -0.93836  -0.84102
  Beta  occ. eigenvalues --   -0.84092  -0.83968  -0.83762  -0.71286  -0.71221
  Beta  occ. eigenvalues --   -0.67971  -0.67935  -0.59783  -0.59651  -0.57505
  Beta  occ. eigenvalues --   -0.57050  -0.53336  -0.52688  -0.50923  -0.50865
  Beta  occ. eigenvalues --   -0.50035  -0.49647  -0.47307  -0.47098  -0.45215
  Beta  occ. eigenvalues --   -0.44923  -0.41220  -0.41123  -0.39622  -0.39317
  Beta  occ. eigenvalues --   -0.39211  -0.39187  -0.29782  -0.28045
  Beta virt. eigenvalues --    0.03966   0.04401   0.10534   0.12248   0.13257
  Beta virt. eigenvalues --    0.14224   0.14447   0.15472   0.15544   0.15995
  Beta virt. eigenvalues --    0.16893   0.16935   0.17115   0.18245   0.19858

 Mulliken charges and spin densities:
               1          2
     1  C   -0.209088  -0.000000
     2  C   -0.188227  -0.000000
     3  H    0.142546   0.000000
     4  H    0.155021   0.000000
     5  C   -0.165268  -0.000001
     6  C   -0.188292   0.000000
     7  H    0.149825   0.000000
     8  H    0.155063  -0.000000
     9  C   -0.170611  -0.000001
    10  H    0.116452   0.000000
    11  H    0.126802   0.000000
    12  C   -0.159740  -0.000000
    13  H    0.145624  -0.000000
    14  C   -0.209074   0.000001
    15  H    0.142558  -0.000000
    16  C   -0.172922   0.000000
    17  H    0.105359  -0.000000
    18  H    0.124226  -0.000000
    19  C   -0.165311   0.000001
    20  H    0.149779  -0.000000
    21  C   -0.159656  -0.000000
    22  H    0.145625   0.000000
    23  C   -0.170523   0.000001
    24  H    0.126707  -0.000000
    25  H    0.116461  -0.000000
    26  C   -0.172915  -0.000000
    27  H    0.124236   0.000000
    28  H    0.105342   0.000000
 Sum of Mulliken charges =  -0.00000   0.00000

 Dipole moment (field-independent basis, Debye):
    X=             -0.0003    Y=              0.0005    Z=              0.0002  Tot=              0.0006
 Quadrupole moment (field-independent basis, Debye-Ang):
   XX=            -73.1826   YY=            -69.6886   ZZ=            -76.0786
   XY=             -3.1244   XZ=             -4.2217   YZ=             -1.6255

 Normal termination of Gaussian 16 at Mon Aug  3 13:37:11 2020.
