 Gaussian 16, Revision B.01,
 Gaussian 16:  ES64L-G16RevB.01 20-Dec-2017

 ----------------------------------------------------------------------
 #p uwb97xd guess=mix def2tzvp # scrf=(iefpcm,solvent=Cyclohexane,read)
  nosym 6d 10f
 ----------------------------------------------------------------------

 -----------------------
 endo-2 xp-pcm for eta=3
 -----------------------
 Symbolic Z-matrix:
 Charge =  0 Multiplicity = 1

                          Input orientation:
 ---------------------------------------------------------------------
 Center     Atomic      Atomic             Coordinates (Angstroms)
 Number     Number       Type             X           Y           Z
 ---------------------------------------------------------------------
      1          6           0       -3.100740   -0.436725    0.295815
      2          6           0       -0.857979   -0.286324   -1.428905
      3          1           0       -3.998989   -0.507198    0.898194
      4          1           0        0.044923   -0.220426   -2.024218
      5          6           0        1.256794    1.450448    0.922302
      6          6           0        0.857979    0.286324    1.428905
      7          1           0        0.679926    2.352386    1.089821
      8          1           0       -0.044923    0.220426    2.024218
      9          6           0        1.678016   -0.959021    1.247210
     10          1           0        2.333558   -1.064055    2.121932
     11          1           0        1.030749   -1.837588    1.242211
     12          6           0        2.491654    1.537925    0.140607
     13          1           0        2.894748    2.517041   -0.088961
     14          6           0        3.100740    0.436725   -0.295815
     15          1           0        3.998989    0.507198   -0.898194
     16          6           0        2.520053   -0.925099   -0.029697
     17          1           0        1.898127   -1.206584   -0.888225
     18          1           0        3.312455   -1.673451    0.027707
     19          6           0       -1.256794   -1.450448   -0.922302
     20          1           0       -0.679926   -2.352386   -1.089821
     21          6           0       -2.491654   -1.537925   -0.140607
     22          1           0       -2.894748   -2.517041    0.088961
     23          6           0       -1.678016    0.959021   -1.247210
     24          1           0       -1.030749    1.837588   -1.242211
     25          1           0       -2.333558    1.064055   -2.121932
     26          6           0       -2.520053    0.925099    0.029697
     27          1           0       -3.312455    1.673451   -0.027707
     28          1           0       -1.898127    1.206584    0.888225
 ---------------------------------------------------------------------

 SCF Done:  E(UwB97XD) =  -466.860444396     A.U. after   17 cycles

 Alpha  occ. eigenvalues --  -10.28401 -10.28400 -10.28333 -10.28333 -10.28314
 Alpha  occ. eigenvalues --  -10.28313 -10.28251 -10.28251 -10.28020 -10.28019
 Alpha  occ. eigenvalues --  -10.27790 -10.27788  -0.94145  -0.93829  -0.84104
 Alpha  occ. eigenvalues --   -0.84103  -0.83967  -0.83763  -0.71285  -0.71235
 Alpha  occ. eigenvalues --   -0.67972  -0.67938  -0.59785  -0.59652  -0.57508
 Alpha  occ. eigenvalues --   -0.57037  -0.53351  -0.52696  -0.50928  -0.50869
 Alpha  occ. eigenvalues --   -0.50034  -0.49636  -0.47315  -0.47092  -0.45210
 Alpha  occ. eigenvalues --   -0.44946  -0.41228  -0.41120  -0.39633  -0.39309
 Alpha  occ. eigenvalues --   -0.39227  -0.39174  -0.29793  -0.28024
 Alpha virt. eigenvalues --    0.03943   0.04426   0.10533   0.12234   0.13263
 Alpha virt. eigenvalues --    0.14238   0.14483   0.15474   0.15553   0.15973
 Alpha virt. eigenvalues --    0.16887   0.16924   0.17117   0.18235   0.19864

  Beta  occ. eigenvalues --  -10.28401 -10.28400 -10.28333 -10.28333 -10.28314
  Beta  occ. eigenvalues --  -10.28313 -10.28251 -10.28251 -10.28020 -10.28019
  Beta  occ. eigenvalues --  -10.27790 -10.27788  -0.94145  -0.93829  -0.84104
  Beta  occ. eigenvalues --   -0.84103  -0.83967  -0.83763  -0.71285  -0.71235
  Beta  occ. eigenvalues --   -0.67972  -0.67938  -0.59785  -0.59652  -0.57508
  Beta  occ. eigenvalues --   -0.57037  -0.53351  -0.52696  -0.50928  -0.50869
  Beta  occ. eigenvalues --   -0.50034  -0.49636  -0.47315  -0.47092  -0.45210
  Beta  occ. eigenvalues --   -0.44946  -0.41228  -0.41120  -0.39633  -0.39309
  Beta  occ. eigenvalues --   -0.39227  -0.39174  -0.29793  -0.28024
  Beta virt. eigenvalues --    0.03943   0.04426   0.10533   0.12234   0.13263
  Beta virt. eigenvalues --    0.14238   0.14483   0.15474   0.15553   0.15973
  Beta virt. eigenvalues --    0.16887   0.16924   0.17117   0.18235   0.19864

 Mulliken charges and spin densities:
               1          2
     1  C   -0.209460  -0.000001
     2  C   -0.187856  -0.000000
     3  H    0.142527   0.000000
     4  H    0.155387   0.000000
     5  C   -0.165081  -0.000001
     6  C   -0.187758   0.000000
     7  H    0.149883   0.000000
     8  H    0.155271  -0.000000
     9  C   -0.172937  -0.000001
    10  H    0.116694   0.000000
    11  H    0.127494   0.000000
    12  C   -0.159145   0.000000
    13  H    0.145645  -0.000000
    14  C   -0.209323   0.000001
    15  H    0.142520  -0.000000
    16  C   -0.173529   0.000000
    17  H    0.105957  -0.000000
    18  H    0.124310  -0.000000
    19  C   -0.164983   0.000001
    20  H    0.149739  -0.000000
    21  C   -0.158948  -0.000000
    22  H    0.145621   0.000000
    23  C   -0.172928   0.000001
    24  H    0.127469  -0.000000
    25  H    0.116690  -0.000000
    26  C   -0.173508  -0.000000
    27  H    0.124317   0.000000
    28  H    0.105931   0.000000
 Sum of Mulliken charges =  -0.00000  -0.00000

 Dipole moment (field-independent basis, Debye):
    X=             -0.0004    Y=              0.0011    Z=              0.0001  Tot=              0.0011
 Quadrupole moment (field-independent basis, Debye-Ang):
   XX=            -73.0943   YY=            -69.7011   ZZ=            -76.1634
   XY=             -3.1380   XZ=             -4.1835   YZ=             -1.6402

 Normal termination of Gaussian 16 at Mon Aug  3 13:42:11 2020.
