 Gaussian 16, Revision B.01,

 ----------------------------------------------------------------------
 #p uwb97xd guess=mix def2tzvp # scrf=(iefpcm,solvent=Cyclohexane,read)
  nosym 6d 10f
 ----------------------------------------------------------------------

 -----------------------
 endo-2 xp-pcm for eta=3
 -----------------------
 Symbolic Z-matrix:
 Charge =  0 Multiplicity = 1

 SCF Done:  E(UwB97XD) =  -466.849898241     A.U. after   17 cycles
 Normal termination of Gaussian 16 at Mon Aug  3 22:55:34 2020.

 ----------------------------------------------------------------------
 #p uwb97xd guess=mix def2tzvp # scrf=(iefpcm,solvent=Cyclohexane,read)
  nosym 6d 10f
 ----------------------------------------------------------------------

 -----------------------
 endo-2 xp-pcm for eta=3
 -----------------------
 Symbolic Z-matrix:
 Charge =  0 Multiplicity = 1

 SCF Done:  E(UwB97XD) =  -466.846701841     A.U. after   17 cycles
 Normal termination of Gaussian 16 at Mon Aug  3 23:01:00 2020.

 ----------------------------------------------------------------------
 #p uwb97xd guess=mix def2tzvp # scrf=(iefpcm,solvent=Cyclohexane,read)
  nosym 6d 10f
 ----------------------------------------------------------------------

 -----------------------
 endo-2 xp-pcm for eta=3
 -----------------------
 Symbolic Z-matrix:
 Charge =  0 Multiplicity = 1

 SCF Done:  E(UwB97XD) =  -466.841694614     A.U. after   17 cycles
 Normal termination of Gaussian 16 at Mon Aug  3 23:06:21 2020.

 ----------------------------------------------------------------------
 #p uwb97xd guess=mix def2tzvp # scrf=(iefpcm,solvent=Cyclohexane,read)
  nosym 6d 10f
 ----------------------------------------------------------------------

 -----------------------
 endo-2 xp-pcm for eta=3
 -----------------------
 Symbolic Z-matrix:
 Charge =  0 Multiplicity = 1

 SCF Done:  E(UwB97XD) =  -466.834604185     A.U. after   17 cycles
 Normal termination of Gaussian 16 at Mon Aug  3 23:11:38 2020.

 ----------------------------------------------------------------------
 #p uwb97xd guess=mix def2tzvp # scrf=(iefpcm,solvent=Cyclohexane,read)
  nosym 6d 10f
 ----------------------------------------------------------------------

 -----------------------
 endo-2 xp-pcm for eta=3
 -----------------------
 Symbolic Z-matrix:
 Charge =  0 Multiplicity = 1

 SCF Done:  E(UwB97XD) =  -466.823937802     A.U. after   17 cycles
 Normal termination of Gaussian 16 at Mon Aug  3 23:16:56 2020.

 ----------------------------------------------------------------------
 #p uwb97xd guess=mix def2tzvp # scrf=(iefpcm,solvent=Cyclohexane,read)
  nosym 6d 10f
 ----------------------------------------------------------------------

 -----------------------
 endo-2 xp-pcm for eta=3
 -----------------------
 Symbolic Z-matrix:
 Charge =  0 Multiplicity = 1

 SCF Done:  E(UwB97XD) =  -466.818404751     A.U. after   17 cycles
 Normal termination of Gaussian 16 at Mon Aug  3 23:22:16 2020.
 Gaussian 16:  ES64L-G16RevB.01 20-Dec-2017

                          Input orientation:
 ---------------------------------------------------------------------
 Center     Atomic      Atomic             Coordinates (Angstroms)
 Number     Number       Type             X           Y           Z
 ---------------------------------------------------------------------
      1          6           0       -3.123434   -0.440315    0.275397
      2          6           0       -0.786456   -0.264710   -1.317722
      3          1           0       -4.049438   -0.523755    0.832457
      4          1           0        0.147212   -0.188449   -1.861678
      5          6           0        1.206095    1.434790    0.844539
      6          6           0        0.786456    0.264710    1.317722
      7          1           0        0.616717    2.332368    0.990121
      8          1           0       -0.147212    0.188449    1.861678
      9          6           0        1.615689   -0.978810    1.173085
     10          1           0        2.198299   -1.101438    2.095398
     11          1           0        0.967232   -1.853572    1.105075
     12          6           0        2.475417    1.533757    0.122289
     13          1           0        2.875313    2.517075   -0.094658
     14          6           0        3.123434    0.440315   -0.275397
     15          1           0        4.049438    0.523755   -0.832457
     16          6           0        2.559757   -0.933106   -0.031997
     17          1           0        2.026432   -1.249959   -0.936638
     18          1           0        3.367180   -1.654954    0.104310
     19          6           0       -1.206095   -1.434790   -0.844539
     20          1           0       -0.616717   -2.332368   -0.990121
     21          6           0       -2.475417   -1.533757   -0.122289
     22          1           0       -2.875313   -2.517076    0.094658
     23          6           0       -1.615689    0.978810   -1.173085
     24          1           0       -0.967232    1.853572   -1.105075
     25          1           0       -2.198299    1.101438   -2.095398
     26          6           0       -2.559757    0.933106    0.031997
     27          1           0       -3.367180    1.654954   -0.104310
     28          1           0       -2.026432    1.249959    0.936638
 ---------------------------------------------------------------------

 SCF Done:  E(UwB97XD) =  -466.810213227     A.U. after   17 cycles

 Alpha  occ. eigenvalues --  -10.27285 -10.27284 -10.27134 -10.27132 -10.27088
 Alpha  occ. eigenvalues --  -10.27087 -10.27083 -10.27082 -10.26798 -10.26798
 Alpha  occ. eigenvalues --  -10.26525 -10.26525  -0.93133  -0.92682  -0.83188
 Alpha  occ. eigenvalues --   -0.83112  -0.82900  -0.82714  -0.70340  -0.70232
 Alpha  occ. eigenvalues --   -0.66963  -0.66950  -0.58735  -0.58595  -0.56416
 Alpha  occ. eigenvalues --   -0.55824  -0.52500  -0.51735  -0.49926  -0.49868
 Alpha  occ. eigenvalues --   -0.48908  -0.48461  -0.46259  -0.45910  -0.44085
 Alpha  occ. eigenvalues --   -0.44066  -0.40205  -0.40005  -0.38646  -0.38321
 Alpha  occ. eigenvalues --   -0.38227  -0.38081  -0.28798  -0.26778
 Alpha virt. eigenvalues --    0.04916   0.05876   0.13265   0.14547   0.16395
 Alpha virt. eigenvalues --    0.16812   0.17166   0.18057   0.18347   0.18990
 Alpha virt. eigenvalues --    0.19593   0.19608   0.20072   0.21213   0.22967

  Beta  occ. eigenvalues --  -10.27285 -10.27284 -10.27134 -10.27132 -10.27088
  Beta  occ. eigenvalues --  -10.27087 -10.27083 -10.27082 -10.26798 -10.26798
  Beta  occ. eigenvalues --  -10.26525 -10.26525  -0.93133  -0.92682  -0.83188
  Beta  occ. eigenvalues --   -0.83112  -0.82900  -0.82714  -0.70340  -0.70232
  Beta  occ. eigenvalues --   -0.66963  -0.66950  -0.58735  -0.58595  -0.56416
  Beta  occ. eigenvalues --   -0.55824  -0.52500  -0.51735  -0.49926  -0.49868
  Beta  occ. eigenvalues --   -0.48908  -0.48461  -0.46259  -0.45910  -0.44085
  Beta  occ. eigenvalues --   -0.44066  -0.40205  -0.40005  -0.38646  -0.38321
  Beta  occ. eigenvalues --   -0.38227  -0.38081  -0.28798  -0.26778
  Beta virt. eigenvalues --    0.04916   0.05876   0.13265   0.14547   0.16395
  Beta virt. eigenvalues --    0.16812   0.17166   0.18057   0.18347   0.18990
  Beta virt. eigenvalues --    0.19593   0.19608   0.20072   0.21213   0.22967

 Mulliken charges and spin densities:
               1          2
     1  C   -0.204867  -0.000002
     2  C   -0.195139   0.000001
     3  H    0.148569   0.000000
     4  H    0.168758   0.000000
     5  C   -0.191388  -0.000001
     6  C   -0.195458   0.000001
     7  H    0.166754   0.000000
     8  H    0.168757  -0.000000
     9  C   -0.211795  -0.000001
    10  H    0.131291   0.000000
    11  H    0.140334   0.000000
    12  C   -0.160284   0.000001
    13  H    0.152245  -0.000000
    14  C   -0.205017  -0.000000
    15  H    0.148591   0.000000
    16  C   -0.193072   0.000001
    17  H    0.115775  -0.000000
    18  H    0.133335  -0.000000
    19  C   -0.192711  -0.000000
    20  H    0.167288  -0.000000
    21  C   -0.160270   0.000001
    22  H    0.152244   0.000000
    23  C   -0.211197   0.000001
    24  H    0.139840  -0.000000
    25  H    0.131189  -0.000000
    26  C   -0.192761  -0.000000
    27  H    0.133254   0.000000
    28  H    0.115736  -0.000000
 Sum of Mulliken charges =  -0.00000   0.00000

 Dipole moment (field-independent basis, Debye):
    X=             -0.0015    Y=             -0.0010    Z=              0.0014  Tot=              0.0023
 Quadrupole moment (field-independent basis, Debye-Ang):
   XX=            -70.4198   YY=            -68.1113   ZZ=            -75.0569
   XY=             -3.3125   XZ=             -3.8946   YZ=             -1.7278

 Normal termination of Gaussian 16 at Mon Aug  3 23:27:35 2020.
