 Gaussian 16, Revision B.01,
 Gaussian 16:  ES64L-G16RevB.01 20-Dec-2017

 ----------------------------------------------------------------------
 #p uwb97xd guess=mix def2tzvp # scrf=(iefpcm,solvent=Cyclohexane,read)
  nosym 6d 10f
 ----------------------------------------------------------------------

 -----------------------
 endo-2 xp-pcm for eta=3
 -----------------------
 Symbolic Z-matrix:
 Charge =  0 Multiplicity = 1

                          Input orientation:
 ---------------------------------------------------------------------
 Center     Atomic      Atomic             Coordinates (Angstroms)
 Number     Number       Type             X           Y           Z
 ---------------------------------------------------------------------
      1          6           0       -3.140994   -0.425040    0.223816
      2          6           0       -0.406297   -0.126897   -0.659080
      3          1           0       -4.135653   -0.544691    0.635088
      4          1           0        0.317409   -0.130657   -1.478814
      5          6           0        1.108935    1.445531    0.607368
      6          6           0        0.406297    0.126897    0.659080
      7          1           0        0.573183    2.344629    0.884397
      8          1           0       -0.317409    0.130657    1.478814
      9          6           0        1.429977   -0.982064    0.932984
     10          1           0        1.831758   -0.829324    1.937981
     11          1           0        0.944143   -1.958831    0.930603
     12          6           0        2.409595    1.535044    0.144587
     13          1           0        2.868872    2.514015    0.060519
     14          6           0        3.140994    0.425040   -0.223816
     15          1           0        4.135653    0.544691   -0.635088
     16          6           0        2.588982   -0.955630   -0.063327
     17          1           0        2.260703   -1.337606   -1.039452
     18          1           0        3.377886   -1.638473    0.263228
     19          6           0       -1.108935   -1.445531   -0.607368
     20          1           0       -0.573183   -2.344629   -0.884397
     21          6           0       -2.409595   -1.535044   -0.144587
     22          1           0       -2.868872   -2.514015   -0.060519
     23          6           0       -1.429977    0.982064   -0.932984
     24          1           0       -0.944143    1.958831   -0.930603
     25          1           0       -1.831758    0.829324   -1.937981
     26          6           0       -2.588982    0.955630    0.063327
     27          1           0       -3.377886    1.638473   -0.263228
     28          1           0       -2.260703    1.337606    1.039452
 ---------------------------------------------------------------------

 SCF Done:  E(UwB97XD) =  -466.837217109     A.U. after   15 cycles

 Alpha  occ. eigenvalues --  -10.29025 -10.28902 -10.28866 -10.28580 -10.28408
 Alpha  occ. eigenvalues --  -10.28360 -10.28214 -10.28141 -10.27897 -10.27859
 Alpha  occ. eigenvalues --  -10.27749 -10.27732  -0.95653  -0.92727  -0.86141
 Alpha  occ. eigenvalues --   -0.84640  -0.83577  -0.80949  -0.71570  -0.70775
 Alpha  occ. eigenvalues --   -0.69188  -0.67564  -0.60224  -0.59389  -0.58778
 Alpha  occ. eigenvalues --   -0.56249  -0.53643  -0.52642  -0.51068  -0.49065
 Alpha  occ. eigenvalues --   -0.49035  -0.48664  -0.48349  -0.47429  -0.45892
 Alpha  occ. eigenvalues --   -0.44734  -0.41395  -0.40894  -0.40034  -0.38902
 Alpha  occ. eigenvalues --   -0.37758  -0.37442  -0.34758  -0.25316
 Alpha virt. eigenvalues --    0.00153   0.10592   0.10620   0.12326   0.13170
 Alpha virt. eigenvalues --    0.14024   0.14765   0.15384   0.16055   0.16269
 Alpha virt. eigenvalues --    0.17034   0.17160   0.18408   0.20007   0.20234

  Beta  occ. eigenvalues --  -10.29025 -10.28902 -10.28867 -10.28580 -10.28407
  Beta  occ. eigenvalues --  -10.28360 -10.28213 -10.28141 -10.27898 -10.27858
  Beta  occ. eigenvalues --  -10.27748 -10.27732  -0.95653  -0.92727  -0.86141
  Beta  occ. eigenvalues --   -0.84640  -0.83577  -0.80949  -0.71570  -0.70775
  Beta  occ. eigenvalues --   -0.69188  -0.67564  -0.60224  -0.59389  -0.58778
  Beta  occ. eigenvalues --   -0.56249  -0.53643  -0.52642  -0.51068  -0.49065
  Beta  occ. eigenvalues --   -0.49036  -0.48663  -0.48349  -0.47429  -0.45892
  Beta  occ. eigenvalues --   -0.44734  -0.41396  -0.40894  -0.40034  -0.38902
  Beta  occ. eigenvalues --   -0.37758  -0.37442  -0.34757  -0.25317
  Beta virt. eigenvalues --    0.00154   0.10592   0.10620   0.12326   0.13170
  Beta virt. eigenvalues --    0.14024   0.14765   0.15384   0.16055   0.16268
  Beta virt. eigenvalues --    0.17034   0.17159   0.18408   0.20007   0.20234

 Mulliken charges and spin densities:
               1          2
     1  C   -0.198407  -0.605166
     2  C   -0.099939   0.047486
     3  H    0.144745   0.025429
     4  H    0.128874  -0.008365
     5  C   -0.210483   0.615783
     6  C   -0.099837  -0.047485
     7  H    0.161968  -0.025689
     8  H    0.128824   0.008365
     9  C   -0.225534   0.010556
    10  H    0.118914  -0.000216
    11  H    0.135560  -0.000744
    12  C   -0.161910  -0.226427
    13  H    0.141466   0.009150
    14  C   -0.198486   0.605170
    15  H    0.144746  -0.025430
    16  C   -0.178268  -0.036835
    17  H    0.115657   0.033548
    18  H    0.127381   0.013784
    19  C   -0.210434  -0.615784
    20  H    0.162038   0.025686
    21  C   -0.162083   0.226425
    22  H    0.141468  -0.009149
    23  C   -0.225649  -0.010551
    24  H    0.135588   0.000743
    25  H    0.119001   0.000215
    26  C   -0.178244   0.036835
    27  H    0.127388  -0.013784
    28  H    0.115658  -0.033549
 Sum of Mulliken charges =  -0.00000  -0.00000

 Dipole moment (field-independent basis, Debye):
    X=              0.0008    Y=             -0.0001    Z=             -0.0001  Tot=              0.0008
 Quadrupole moment (field-independent basis, Debye-Ang):
   XX=            -71.8205   YY=            -71.2099   ZZ=            -76.4372
   XY=             -2.3475   XZ=             -2.4985   YZ=              0.2107

 Normal termination of Gaussian 16 at Mon Aug  3 17:16:26 2020.
