 Gaussian 16, Revision B.01,
 Gaussian 16:  ES64L-G16RevB.01 20-Dec-2017

 ----------------------------------------------------------------------
 #p uwb97xd guess=mix def2tzvp # scrf=(iefpcm,solvent=Cyclohexane,read)
  nosym 6d 10f
 ----------------------------------------------------------------------

 -----------------------
 endo-2 xp-pcm for eta=3
 -----------------------
 Symbolic Z-matrix:
 Charge =  0 Multiplicity = 1

                          Input orientation:
 ---------------------------------------------------------------------
 Center     Atomic      Atomic             Coordinates (Angstroms)
 Number     Number       Type             X           Y           Z
 ---------------------------------------------------------------------
      1          6           0       -3.123533   -0.438909    0.249907
      2          6           0       -0.634623   -0.226767   -1.083823
      3          1           0       -4.085324   -0.546070    0.738063
      4          1           0        0.336814   -0.133008   -1.549979
      5          6           0        1.109786    1.414310    0.718484
      6          6           0        0.634623    0.226767    1.083823
      7          1           0        0.519777    2.312927    0.848046
      8          1           0       -0.336814    0.133008    1.549979
      9          6           0        1.495934   -1.001134    1.028869
     10          1           0        1.973156   -1.081856    2.013692
     11          1           0        0.887322   -1.896884    0.916876
     12          6           0        2.431004    1.520477    0.106878
     13          1           0        2.838163    2.507840   -0.075868
     14          6           0        3.123533    0.438909   -0.249907
     15          1           0        4.085324    0.546070   -0.738063
     16          6           0        2.588421   -0.951995   -0.044511
     17          1           0        2.216156   -1.333084   -1.003507
     18          1           0        3.400666   -1.624754    0.238421
     19          6           0       -1.109786   -1.414310   -0.718484
     20          1           0       -0.519777   -2.312927   -0.848046
     21          6           0       -2.431004   -1.520477   -0.106878
     22          1           0       -2.838163   -2.507840    0.075868
     23          6           0       -1.495934    1.001134   -1.028869
     24          1           0       -0.887321    1.896884   -0.916876
     25          1           0       -1.973156    1.081856   -2.013692
     26          6           0       -2.588421    0.951995    0.044511
     27          1           0       -3.400666    1.624754   -0.238421
     28          1           0       -2.216156    1.333084    1.003507
 ---------------------------------------------------------------------

 SCF Done:  E(UwB97XD) =  -466.846664458     A.U. after   18 cycles

 Alpha  occ. eigenvalues --  -10.28624 -10.28624 -10.28276 -10.28275 -10.28272
 Alpha  occ. eigenvalues --  -10.28272 -10.28230 -10.28229 -10.28019 -10.28019
 Alpha  occ. eigenvalues --  -10.27332 -10.27331  -0.94561  -0.93540  -0.84697
 Alpha  occ. eigenvalues --   -0.84389  -0.83711  -0.83610  -0.71723  -0.71096
 Alpha  occ. eigenvalues --   -0.68323  -0.67912  -0.59925  -0.59843  -0.57634
 Alpha  occ. eigenvalues --   -0.56519  -0.53760  -0.52991  -0.51082  -0.50993
 Alpha  occ. eigenvalues --   -0.49913  -0.49175  -0.47643  -0.46941  -0.45765
 Alpha  occ. eigenvalues --   -0.44944  -0.41510  -0.41023  -0.39944  -0.39255
 Alpha  occ. eigenvalues --   -0.39242  -0.38758  -0.30190  -0.26804
 Alpha virt. eigenvalues --    0.02634   0.05921   0.10509   0.12354   0.13439
 Alpha virt. eigenvalues --    0.14567   0.14886   0.15723   0.15792   0.15961
 Alpha virt. eigenvalues --    0.16598   0.17048   0.17401   0.18279   0.19965

  Beta  occ. eigenvalues --  -10.28624 -10.28624 -10.28276 -10.28275 -10.28272
  Beta  occ. eigenvalues --  -10.28272 -10.28230 -10.28229 -10.28019 -10.28019
  Beta  occ. eigenvalues --  -10.27332 -10.27331  -0.94561  -0.93540  -0.84697
  Beta  occ. eigenvalues --   -0.84389  -0.83711  -0.83610  -0.71723  -0.71096
  Beta  occ. eigenvalues --   -0.68323  -0.67912  -0.59925  -0.59843  -0.57634
  Beta  occ. eigenvalues --   -0.56519  -0.53760  -0.52991  -0.51082  -0.50993
  Beta  occ. eigenvalues --   -0.49913  -0.49175  -0.47643  -0.46941  -0.45765
  Beta  occ. eigenvalues --   -0.44944  -0.41510  -0.41023  -0.39944  -0.39255
  Beta  occ. eigenvalues --   -0.39242  -0.38758  -0.30190  -0.26804
  Beta virt. eigenvalues --    0.02634   0.05921   0.10509   0.12354   0.13439
  Beta virt. eigenvalues --    0.14567   0.14886   0.15723   0.15792   0.15961
  Beta virt. eigenvalues --    0.16598   0.17048   0.17401   0.18279   0.19965

 Mulliken charges and spin densities:
               1          2
     1  C   -0.209363  -0.000000
     2  C   -0.194748   0.000000
     3  H    0.141521   0.000000
     4  H    0.170247  -0.000000
     5  C   -0.153825   0.000000
     6  C   -0.194819  -0.000000
     7  H    0.153755   0.000000
     8  H    0.170217   0.000000
     9  C   -0.213345  -0.000001
    10  H    0.120028   0.000000
    11  H    0.142748   0.000000
    12  C   -0.167472  -0.000000
    13  H    0.144709  -0.000000
    14  C   -0.209449   0.000001
    15  H    0.141531  -0.000000
    16  C   -0.174466   0.000000
    17  H    0.114098  -0.000000
    18  H    0.126272  -0.000000
    19  C   -0.153979   0.000000
    20  H    0.153845  -0.000000
    21  C   -0.167596   0.000000
    22  H    0.144741   0.000000
    23  C   -0.213353   0.000001
    24  H    0.142780  -0.000000
    25  H    0.120030  -0.000000
    26  C   -0.174476  -0.000001
    27  H    0.126285   0.000000
    28  H    0.114083   0.000000
 Sum of Mulliken charges =  -0.00000   0.00000

 Dipole moment (field-independent basis, Debye):
    X=              0.0004    Y=             -0.0009    Z=             -0.0002  Tot=              0.0010
 Quadrupole moment (field-independent basis, Debye-Ang):
   XX=            -72.2271   YY=            -69.8691   ZZ=            -77.2421
   XY=             -3.3422   XZ=             -3.3922   YZ=             -1.6042

 Normal termination of Gaussian 16 at Mon Aug  3 15:26:44 2020.
