 Gaussian 16, Revision B.01,

 ----------------------------------------------------------------------
 #p uwb97xd guess=mix def2tzvp # scrf=(iefpcm,solvent=Cyclohexane,read)
  nosym 6d 10f
 ----------------------------------------------------------------------

 -----------------------
 endo-2 xp-pcm for eta=3
 -----------------------
 Symbolic Z-matrix:
 Charge =  0 Multiplicity = 1

 SCF Done:  E(UwB97XD) =  -466.840722339     A.U. after   18 cycles
 Normal termination of Gaussian 16 at Tue Aug  4 06:03:46 2020.

 ----------------------------------------------------------------------
 #p uwb97xd guess=mix def2tzvp # scrf=(iefpcm,solvent=Cyclohexane,read)
  nosym 6d 10f
 ----------------------------------------------------------------------

 -----------------------
 endo-2 xp-pcm for eta=3
 -----------------------
 Symbolic Z-matrix:
 Charge =  0 Multiplicity = 1

 SCF Done:  E(UwB97XD) =  -466.837614300     A.U. after   18 cycles
 Normal termination of Gaussian 16 at Tue Aug  4 06:09:28 2020.

 ----------------------------------------------------------------------
 #p uwb97xd guess=mix def2tzvp # scrf=(iefpcm,solvent=Cyclohexane,read)
  nosym 6d 10f
 ----------------------------------------------------------------------

 -----------------------
 endo-2 xp-pcm for eta=3
 -----------------------
 Symbolic Z-matrix:
 Charge =  0 Multiplicity = 1

 SCF Done:  E(UwB97XD) =  -466.833029890     A.U. after   18 cycles
 Normal termination of Gaussian 16 at Tue Aug  4 06:15:10 2020.

 ----------------------------------------------------------------------
 #p uwb97xd guess=mix def2tzvp # scrf=(iefpcm,solvent=Cyclohexane,read)
  nosym 6d 10f
 ----------------------------------------------------------------------

 -----------------------
 endo-2 xp-pcm for eta=3
 -----------------------
 Symbolic Z-matrix:
 Charge =  0 Multiplicity = 1

 SCF Done:  E(UwB97XD) =  -466.825974641     A.U. after   18 cycles
 Normal termination of Gaussian 16 at Tue Aug  4 06:20:52 2020.

 ----------------------------------------------------------------------
 #p uwb97xd guess=mix def2tzvp # scrf=(iefpcm,solvent=Cyclohexane,read)
  nosym 6d 10f
 ----------------------------------------------------------------------

 -----------------------
 endo-2 xp-pcm for eta=3
 -----------------------
 Symbolic Z-matrix:
 Charge =  0 Multiplicity = 1

 SCF Done:  E(UwB97XD) =  -466.816007712     A.U. after   18 cycles
 Normal termination of Gaussian 16 at Tue Aug  4 06:26:32 2020.

 ----------------------------------------------------------------------
 #p uwb97xd guess=mix def2tzvp # scrf=(iefpcm,solvent=Cyclohexane,read)
  nosym 6d 10f
 ----------------------------------------------------------------------

 -----------------------
 endo-2 xp-pcm for eta=3
 -----------------------
 Symbolic Z-matrix:
 Charge =  0 Multiplicity = 1

 SCF Done:  E(UwB97XD) =  -466.808898729     A.U. after   18 cycles
 Normal termination of Gaussian 16 at Tue Aug  4 06:32:12 2020.
 Gaussian 16:  ES64L-G16RevB.01 20-Dec-2017

                          Input orientation:
 ---------------------------------------------------------------------
 Center     Atomic      Atomic             Coordinates (Angstroms)
 Number     Number       Type             X           Y           Z
 ---------------------------------------------------------------------
      1          6           0       -3.125400   -0.440005    0.252083
      2          6           0       -0.659840   -0.233754   -1.126379
      3          1           0       -4.084200   -0.543289    0.746935
      4          1           0        0.308739   -0.142233   -1.599972
      5          6           0        1.122664    1.417123    0.734560
      6          6           0        0.659840    0.233754    1.126379
      7          1           0        0.530286    2.314651    0.862502
      8          1           0       -0.308739    0.142233    1.599972
      9          6           0        1.510582   -1.000676    1.048954
     10          1           0        1.998188   -1.106214    2.026331
     11          1           0        0.888300   -1.886305    0.928530
     12          6           0        2.436831    1.523333    0.105247
     13          1           0        2.842008    2.510246   -0.084086
     14          6           0        3.125400    0.440005   -0.252083
     15          1           0        4.084200    0.543289   -0.746935
     16          6           0        2.585867   -0.948552   -0.042215
     17          1           0        2.191291   -1.318993   -0.996443
     18          1           0        3.399102   -1.628770    0.218906
     19          6           0       -1.122664   -1.417123   -0.734560
     20          1           0       -0.530286   -2.314651   -0.862502
     21          6           0       -2.436831   -1.523333   -0.105247
     22          1           0       -2.842008   -2.510246    0.084086
     23          6           0       -1.510582    1.000676   -1.048954
     24          1           0       -0.888300    1.886305   -0.928530
     25          1           0       -1.998187    1.106214   -2.026331
     26          6           0       -2.585867    0.948552    0.042215
     27          1           0       -3.399102    1.628770   -0.218906
     28          1           0       -2.191291    1.318993    0.996443
 ---------------------------------------------------------------------

 SCF Done:  E(UwB97XD) =  -466.801213152     A.U. after   18 cycles

 Alpha  occ. eigenvalues --  -10.27371 -10.27359 -10.27082 -10.27077 -10.27037
 Alpha  occ. eigenvalues --  -10.27033 -10.27032 -10.27022 -10.26774 -10.26770
 Alpha  occ. eigenvalues --  -10.26223 -10.26222  -0.93379  -0.92488  -0.83528
 Alpha  occ. eigenvalues --   -0.83279  -0.82649  -0.82633  -0.70613  -0.70077
 Alpha  occ. eigenvalues --   -0.67176  -0.66888  -0.58815  -0.58699  -0.56497
 Alpha  occ. eigenvalues --   -0.55505  -0.52709  -0.51861  -0.49964  -0.49927
 Alpha  occ. eigenvalues --   -0.48814  -0.48154  -0.46460  -0.45801  -0.44531
 Alpha  occ. eigenvalues --   -0.43896  -0.40358  -0.39927  -0.38807  -0.38261
 Alpha  occ. eigenvalues --   -0.38152  -0.37811  -0.29013  -0.26027
 Alpha virt. eigenvalues --    0.04157   0.06838   0.13390   0.15002   0.16574
 Alpha virt. eigenvalues --    0.16858   0.17575   0.18236   0.18662   0.19022
 Alpha virt. eigenvalues --    0.19436   0.19479   0.20271   0.21271   0.22988

  Beta  occ. eigenvalues --  -10.27371 -10.27359 -10.27082 -10.27077 -10.27037
  Beta  occ. eigenvalues --  -10.27033 -10.27032 -10.27022 -10.26774 -10.26770
  Beta  occ. eigenvalues --  -10.26223 -10.26222  -0.93379  -0.92488  -0.83528
  Beta  occ. eigenvalues --   -0.83279  -0.82649  -0.82633  -0.70613  -0.70077
  Beta  occ. eigenvalues --   -0.67176  -0.66888  -0.58815  -0.58699  -0.56497
  Beta  occ. eigenvalues --   -0.55505  -0.52709  -0.51861  -0.49964  -0.49927
  Beta  occ. eigenvalues --   -0.48814  -0.48154  -0.46460  -0.45801  -0.44531
  Beta  occ. eigenvalues --   -0.43896  -0.40358  -0.39927  -0.38807  -0.38261
  Beta  occ. eigenvalues --   -0.38152  -0.37811  -0.29013  -0.26027
  Beta virt. eigenvalues --    0.04157   0.06838   0.13390   0.15002   0.16574
  Beta virt. eigenvalues --    0.16858   0.17575   0.18236   0.18662   0.19022
  Beta virt. eigenvalues --    0.19436   0.19479   0.20271   0.21271   0.22988

 Mulliken charges and spin densities:
               1          2
     1  C   -0.203760  -0.000000
     2  C   -0.207315  -0.000000
     3  H    0.148271   0.000000
     4  H    0.179107  -0.000000
     5  C   -0.176954   0.000000
     6  C   -0.207133  -0.000000
     7  H    0.165838   0.000000
     8  H    0.177620   0.000000
     9  C   -0.234558  -0.000001
    10  H    0.132196   0.000000
    11  H    0.151284   0.000000
    12  C   -0.165094  -0.000000
    13  H    0.151029  -0.000000
    14  C   -0.203745   0.000001
    15  H    0.148097  -0.000000
    16  C   -0.195472   0.000000
    17  H    0.123383  -0.000000
    18  H    0.133832  -0.000000
    19  C   -0.179460   0.000000
    20  H    0.166521  -0.000000
    21  C   -0.164152  -0.000000
    22  H    0.150780   0.000000
    23  C   -0.235231   0.000001
    24  H    0.150584  -0.000000
    25  H    0.132613  -0.000000
    26  C   -0.194360  -0.000000
    27  H    0.133779   0.000000
    28  H    0.122300   0.000000
 Sum of Mulliken charges =  -0.00000   0.00000

 Dipole moment (field-independent basis, Debye):
    X=              0.0001    Y=             -0.0072    Z=             -0.0018  Tot=              0.0075
 Quadrupole moment (field-independent basis, Debye-Ang):
   XX=            -70.1443   YY=            -68.1703   ZZ=            -75.6604
   XY=             -3.4088   XZ=             -3.4846   YZ=             -1.6617

 Normal termination of Gaussian 16 at Tue Aug  4 06:37:52 2020.
